   2   2   0   0
  0.2334756E+02  0.4041992E-09  0.4041992E-09  0.4041992E-09  0.5000000E-15
  1.000000000000000E-004
  CAR 
 CaS HSE06                               
     13.79691078    -21.28220950  301      2.35234779      1.00000000
    -21.282  0.0000E+00  0.0000E+00
    -21.165  0.0000E+00  0.0000E+00
    -21.048  0.0000E+00  0.0000E+00
    -20.931  0.0000E+00  0.0000E+00
    -20.814  0.0000E+00  0.0000E+00
    -20.698  0.0000E+00  0.0000E+00
    -20.581  0.0000E+00  0.0000E+00
    -20.464  0.0000E+00  0.0000E+00
    -20.347  0.0000E+00  0.0000E+00
    -20.230  0.0000E+00  0.0000E+00
    -20.113  0.0000E+00  0.0000E+00
    -19.996  0.0000E+00  0.0000E+00
    -19.879  0.0000E+00  0.0000E+00
    -19.762  0.0000E+00  0.0000E+00
    -19.645  0.4360E+01  0.5099E+00
    -19.528  0.2810E+02  0.5036E+01
    -19.411  0.0000E+00  0.6000E+01
    -19.294  0.0000E+00  0.6000E+01
    -19.177  0.0000E+00  0.6000E+01
    -19.061  0.0000E+00  0.6000E+01
    -18.944  0.0000E+00  0.6000E+01
    -18.827  0.0000E+00  0.6000E+01
    -18.710  0.0000E+00  0.6000E+01
    -18.593  0.0000E+00  0.6000E+01
    -18.476  0.0000E+00  0.6000E+01
    -18.359  0.0000E+00  0.6000E+01
    -18.242  0.0000E+00  0.6000E+01
    -18.125  0.0000E+00  0.6000E+01
    -18.008  0.0000E+00  0.6000E+01
    -17.891  0.0000E+00  0.6000E+01
    -17.774  0.0000E+00  0.6000E+01
    -17.657  0.0000E+00  0.6000E+01
    -17.540  0.0000E+00  0.6000E+01
    -17.424  0.0000E+00  0.6000E+01
    -17.307  0.0000E+00  0.6000E+01
    -17.190  0.0000E+00  0.6000E+01
    -17.073  0.0000E+00  0.6000E+01
    -16.956  0.0000E+00  0.6000E+01
    -16.839  0.0000E+00  0.6000E+01
    -16.722  0.0000E+00  0.6000E+01
    -16.605  0.0000E+00  0.6000E+01
    -16.488  0.0000E+00  0.6000E+01
    -16.371  0.0000E+00  0.6000E+01
    -16.254  0.0000E+00  0.6000E+01
    -16.137  0.0000E+00  0.6000E+01
    -16.020  0.0000E+00  0.6000E+01
    -15.903  0.0000E+00  0.6000E+01
    -15.786  0.0000E+00  0.6000E+01
    -15.670  0.0000E+00  0.6000E+01
    -15.553  0.0000E+00  0.6000E+01
    -15.436  0.0000E+00  0.6000E+01
    -15.319  0.0000E+00  0.6000E+01
    -15.202  0.0000E+00  0.6000E+01
    -15.085  0.0000E+00  0.6000E+01
    -14.968  0.0000E+00  0.6000E+01
    -14.851  0.0000E+00  0.6000E+01
    -14.734  0.0000E+00  0.6000E+01
    -14.617  0.0000E+00  0.6000E+01
    -14.500  0.0000E+00  0.6000E+01
    -14.383  0.0000E+00  0.6000E+01
    -14.266  0.0000E+00  0.6000E+01
    -14.149  0.0000E+00  0.6000E+01
    -14.033  0.0000E+00  0.6000E+01
    -13.916  0.0000E+00  0.6000E+01
    -13.799  0.0000E+00  0.6000E+01
    -13.682  0.0000E+00  0.6000E+01
    -13.565  0.0000E+00  0.6000E+01
    -13.448  0.0000E+00  0.6000E+01
    -13.331  0.0000E+00  0.6000E+01
    -13.214  0.0000E+00  0.6000E+01
    -13.097  0.0000E+00  0.6000E+01
    -12.980  0.0000E+00  0.6000E+01
    -12.863  0.0000E+00  0.6000E+01
    -12.746  0.0000E+00  0.6000E+01
    -12.629  0.0000E+00  0.6000E+01
    -12.512  0.0000E+00  0.6000E+01
    -12.395  0.0000E+00  0.6000E+01
    -12.279  0.0000E+00  0.6000E+01
    -12.162  0.0000E+00  0.6000E+01
    -12.045  0.0000E+00  0.6000E+01
    -11.928  0.0000E+00  0.6000E+01
    -11.811  0.0000E+00  0.6000E+01
    -11.694  0.0000E+00  0.6000E+01
    -11.577  0.0000E+00  0.6000E+01
    -11.460  0.0000E+00  0.6000E+01
    -11.343  0.0000E+00  0.6000E+01
    -11.226  0.0000E+00  0.6000E+01
    -11.109  0.0000E+00  0.6000E+01
    -10.992  0.0000E+00  0.6000E+01
    -10.875  0.0000E+00  0.6000E+01
    -10.758  0.0000E+00  0.6000E+01
    -10.642  0.0000E+00  0.6000E+01
    -10.525  0.0000E+00  0.6000E+01
    -10.408  0.0000E+00  0.6000E+01
    -10.291  0.4791E-04  0.6000E+01
    -10.174  0.0000E+00  0.6009E+01
    -10.057  0.5585E+00  0.6075E+01
     -9.940  0.0000E+00  0.6139E+01
     -9.823  0.7591E-02  0.6140E+01
     -9.706  0.1590E+01  0.6436E+01
     -9.589  0.1109E+01  0.6602E+01
     -9.472  0.5979E+01  0.7329E+01
     -9.355  0.5068E+01  0.8000E+01
     -9.238  0.0000E+00  0.8000E+01
     -9.121  0.0000E+00  0.8000E+01
     -9.005  0.0000E+00  0.8000E+01
     -8.888  0.0000E+00  0.8000E+01
     -8.771  0.0000E+00  0.8000E+01
     -8.654  0.0000E+00  0.8000E+01
     -8.537  0.0000E+00  0.8000E+01
     -8.420  0.0000E+00  0.8000E+01
     -8.303  0.0000E+00  0.8000E+01
     -8.186  0.0000E+00  0.8000E+01
     -8.069  0.0000E+00  0.8000E+01
     -7.952  0.0000E+00  0.8000E+01
     -7.835  0.0000E+00  0.8000E+01
     -7.718  0.0000E+00  0.8000E+01
     -7.601  0.0000E+00  0.8000E+01
     -7.484  0.0000E+00  0.8000E+01
     -7.367  0.0000E+00  0.8000E+01
     -7.251  0.0000E+00  0.8000E+01
     -7.134  0.0000E+00  0.8000E+01
     -7.017  0.0000E+00  0.8000E+01
     -6.900  0.0000E+00  0.8000E+01
     -6.783  0.0000E+00  0.8000E+01
     -6.666  0.0000E+00  0.8000E+01
     -6.549  0.0000E+00  0.8000E+01
     -6.432  0.0000E+00  0.8000E+01
     -6.315  0.0000E+00  0.8000E+01
     -6.198  0.0000E+00  0.8000E+01
     -6.081  0.0000E+00  0.8000E+01
     -5.964  0.0000E+00  0.8000E+01
     -5.847  0.0000E+00  0.8000E+01
     -5.730  0.0000E+00  0.8000E+01
     -5.614  0.0000E+00  0.8000E+01
     -5.497  0.0000E+00  0.8000E+01
     -5.380  0.0000E+00  0.8000E+01
     -5.263  0.0000E+00  0.8000E+01
     -5.146  0.0000E+00  0.8000E+01
     -5.029  0.0000E+00  0.8000E+01
     -4.912  0.0000E+00  0.8000E+01
     -4.795  0.0000E+00  0.8000E+01
     -4.678  0.0000E+00  0.8000E+01
     -4.561  0.0000E+00  0.8000E+01
     -4.444  0.0000E+00  0.8000E+01
     -4.327  0.0000E+00  0.8000E+01
     -4.210  0.0000E+00  0.8000E+01
     -4.093  0.0000E+00  0.8000E+01
     -3.977  0.0000E+00  0.8000E+01
     -3.860  0.0000E+00  0.8000E+01
     -3.743  0.0000E+00  0.8000E+01
     -3.626  0.0000E+00  0.8000E+01
     -3.509  0.0000E+00  0.8000E+01
     -3.392  0.0000E+00  0.8000E+01
     -3.275  0.0000E+00  0.8000E+01
     -3.158  0.0000E+00  0.8000E+01
     -3.041  0.0000E+00  0.8000E+01
     -2.924  0.0000E+00  0.8000E+01
     -2.807  0.0000E+00  0.8000E+01
     -2.690  0.0000E+00  0.8000E+01
     -2.573  0.0000E+00  0.8000E+01
     -2.456  0.0000E+00  0.8000E+01
     -2.339  0.0000E+00  0.8000E+01
     -2.223  0.0000E+00  0.8000E+01
     -2.106  0.0000E+00  0.8000E+01
     -1.989  0.0000E+00  0.8000E+01
     -1.872  0.0000E+00  0.8000E+01
     -1.755  0.0000E+00  0.8000E+01
     -1.638  0.0000E+00  0.8000E+01
     -1.521  0.0000E+00  0.8000E+01
     -1.404  0.0000E+00  0.8000E+01
     -1.287  0.0000E+00  0.8000E+01
     -1.170  0.8692E-07  0.8000E+01
     -1.053  0.0000E+00  0.8037E+01
     -0.936  0.0000E+00  0.8037E+01
     -0.819  0.1303E-10  0.8037E+01
     -0.702  0.1900E+01  0.8259E+01
     -0.586  0.1900E+01  0.8481E+01
     -0.469  0.1920E+00  0.8504E+01
     -0.352  0.1680E+01  0.8752E+01
     -0.235  0.4276E+01  0.9306E+01
     -0.118  0.1821E+00  0.9438E+01
     -0.001  0.9502E+00  0.9750E+01
      0.116  0.0000E+00  0.9750E+01
      0.233  0.1900E+01  0.9972E+01
      0.350  0.0000E+00  0.9972E+01
      0.467  0.1900E+01  0.1019E+02
      0.584  0.0000E+00  0.1019E+02
      0.701  0.9493E+00  0.1031E+02
      0.818  0.3802E+01  0.1086E+02
      0.935  0.5701E+01  0.1158E+02
      1.051  0.3193E+01  0.1196E+02
      1.168  0.6335E+00  0.1251E+02
      1.285  0.5050E+01  0.1310E+02
      1.402  0.7865E-01  0.1317E+02
      1.519  0.3801E+01  0.1371E+02
      1.636  0.0000E+00  0.1371E+02
      1.753  0.0000E+00  0.1371E+02
      1.870  0.1390E+01  0.1388E+02
      1.987  0.0000E+00  0.1397E+02
      2.104  0.0000E+00  0.1397E+02
      2.221  0.2125E+00  0.1400E+02
      2.338  0.0000E+00  0.1400E+02
      2.455  0.0000E+00  0.1400E+02
      2.572  0.0000E+00  0.1400E+02
      2.689  0.0000E+00  0.1400E+02
      2.805  0.0000E+00  0.1400E+02
      2.922  0.0000E+00  0.1400E+02
      3.039  0.0000E+00  0.1400E+02
      3.156  0.0000E+00  0.1400E+02
      3.273  0.0000E+00  0.1400E+02
      3.390  0.0000E+00  0.1400E+02
      3.507  0.0000E+00  0.1400E+02
      3.624  0.0000E+00  0.1400E+02
      3.741  0.0000E+00  0.1400E+02
      3.858  0.0000E+00  0.1400E+02
      3.975  0.0000E+00  0.1400E+02
      4.092  0.0000E+00  0.1400E+02
      4.209  0.0000E+00  0.1400E+02
      4.326  0.0000E+00  0.1400E+02
      4.442  0.0000E+00  0.1400E+02
      4.559  0.0000E+00  0.1400E+02
      4.676  0.0000E+00  0.1400E+02
      4.793  0.0000E+00  0.1400E+02
      4.910  0.0000E+00  0.1400E+02
      5.027  0.0000E+00  0.1400E+02
      5.144  0.0000E+00  0.1400E+02
      5.261  0.0000E+00  0.1400E+02
      5.378  0.0000E+00  0.1400E+02
      5.495  0.0000E+00  0.1400E+02
      5.612  0.1469E-11  0.1400E+02
      5.729  0.2376E+00  0.1403E+02
      5.846  0.0000E+00  0.1403E+02
      5.963  0.0000E+00  0.1403E+02
      6.080  0.4751E+00  0.1408E+02
      6.196  0.0000E+00  0.1408E+02
      6.313  0.0000E+00  0.1408E+02
      6.430  0.1732E-05  0.1408E+02
      6.547  0.0000E+00  0.1431E+02
      6.664  0.0000E+00  0.1431E+02
      6.781  0.0000E+00  0.1431E+02
      6.898  0.0000E+00  0.1431E+02
      7.015  0.6093E-02  0.1431E+02
      7.132  0.2851E+01  0.1469E+02
      7.249  0.0000E+00  0.1469E+02
      7.366  0.1057E+00  0.1471E+02
      7.483  0.0000E+00  0.1493E+02
      7.600  0.3444E+00  0.1497E+02
      7.717  0.9391E-01  0.1501E+02
      7.833  0.7919E-01  0.1503E+02
      7.950  0.1584E+01  0.1521E+02
      8.067  0.4812E-11  0.1555E+02
      8.184  0.1739E+01  0.1575E+02
      8.301  0.0000E+00  0.1575E+02
      8.418  0.1531E+01  0.1593E+02
      8.535  0.3749E-11  0.1635E+02
      8.652  0.3326E+01  0.1674E+02
      8.769  0.1583E+01  0.1693E+02
      8.886  0.0000E+00  0.1693E+02
      9.003  0.3662E-08  0.1693E+02
      9.120  0.3386E+01  0.1732E+02
      9.237  0.2217E+01  0.1759E+02
      9.354  0.2015E+01  0.1805E+02
      9.470  0.1656E-04  0.1831E+02
      9.587  0.5961E-14  0.1843E+02
      9.704  0.3819E+01  0.1887E+02
      9.821  0.3068E+01  0.1945E+02
      9.938  0.4576E+01  0.2011E+02
     10.055  0.2851E+01  0.2046E+02
     10.172  0.2534E+01  0.2076E+02
     10.289  0.6313E+01  0.2150E+02
     10.406  0.4703E+01  0.2216E+02
     10.523  0.1932E+01  0.2250E+02
     10.640  0.3801E+01  0.2317E+02
     10.757  0.2765E+01  0.2349E+02
     10.874  0.2851E+01  0.2385E+02
     10.991  0.0000E+00  0.2385E+02
     11.108  0.0000E+00  0.2385E+02
     11.224  0.9502E+00  0.2396E+02
     11.341  0.0000E+00  0.2396E+02
     11.458  0.0000E+00  0.2396E+02
     11.575  0.0000E+00  0.2396E+02
     11.692  0.0000E+00  0.2396E+02
     11.809  0.0000E+00  0.2396E+02
     11.926  0.0000E+00  0.2396E+02
     12.043  0.0000E+00  0.2396E+02
     12.160  0.6540E-04  0.2396E+02
     12.277  0.0000E+00  0.2400E+02
     12.394  0.0000E+00  0.2400E+02
     12.511  0.0000E+00  0.2400E+02
     12.628  0.0000E+00  0.2400E+02
     12.745  0.0000E+00  0.2400E+02
     12.861  0.0000E+00  0.2400E+02
     12.978  0.0000E+00  0.2400E+02
     13.095  0.0000E+00  0.2400E+02
     13.212  0.0000E+00  0.2400E+02
     13.329  0.0000E+00  0.2400E+02
     13.446  0.0000E+00  0.2400E+02
     13.563  0.0000E+00  0.2400E+02
     13.680  0.0000E+00  0.2400E+02
     13.797  0.0000E+00  0.2400E+02
