    2    2    1    1
  0.2334756E+02  0.4041992E-09  0.4041992E-09  0.4041992E-09  0.5000000E-15
  1.000000000000000E-004
  CAR 
 CaS HSE06                               
     14     53     12
 
  0.0000000E+00  0.0000000E+00  0.0000000E+00  0.4629630E-02
      1        -19.511497   1.000000
      2        -19.511482   1.000000
      3        -19.511475   1.000000
      4        -10.267866   1.000000
      5          2.211905   1.000000
      6          2.211949   1.000000
      7          2.212005   1.000000
      8          7.327926   0.000000
      9          7.714532   0.000000
     10          7.715198   0.000000
     11          7.780567   0.000000
     12          8.385417   0.000000
 
  0.1666667E+00  0.0000000E+00  0.0000000E+00  0.3703704E-01
      1        -19.556834   1.000000
      2        -19.514164   1.000000
      3        -19.514151   1.000000
      4        -10.065255   1.000000
      5          1.117277   1.000000
      6          1.847501   1.000000
      7          1.847609   1.000000
      8          7.598825   0.000000
      9          8.147551   0.000000
     10          8.165904   0.000000
     11          8.693700   0.000000
     12          9.112493   0.000000
 
  0.3333333E+00  0.0000000E+00  0.0000000E+00  0.3703704E-01
      1        -19.644901   1.000000
      2        -19.519507   1.000000
      3        -19.519494   1.000000
      4         -9.625456   1.000000
      5         -0.464952   1.000000
      6          1.264391   1.000000
      7          1.264424   1.000000
      8          7.876291   0.000000
      9          9.205502   0.000000
     10          9.208975   0.000000
     11         10.234763   0.000000
     12         10.738827   0.000000
 
  0.5000000E+00  0.0000000E+00  0.0000000E+00  0.1851852E-01
      1        -19.687692   1.000000
      2        -19.522171   1.000000
      3        -19.522158   1.000000
      4         -9.382451   1.000000
      5         -1.134766   1.000000
      6          1.019290   1.000000
      7          1.019307   1.000000
      8          8.376298   0.000000
      9          9.857233   0.000000
     10         10.101088   0.000000
     11         10.101420   0.000000
     12         12.184858   0.000000
 
  0.1666667E+00  0.1666667E+00  0.0000000E+00  0.2777778E-01
      1        -19.551917   1.000000
      2        -19.523958   1.000000
      3        -19.523947   1.000000
      4        -10.021163   1.000000
      5          0.838400   1.000000
      6          1.877930   1.000000
      7          1.877976   1.000000
      8          7.030727   0.000000
      9          8.114727   0.000000
     10          8.612222   0.000000
     11          8.746893   0.000000
     12          8.747450   0.000000
 
  0.3333333E+00  0.1666667E+00  0.0000000E+00  0.1111111E+00
      1        -19.613852   1.000000
      2        -19.532960   1.000000
      3        -19.531244   1.000000
      4         -9.713041   1.000000
      5         -0.108573   1.000000
      6          1.268567   1.000000
      7          1.463967   1.000000
      8          7.079936   0.000000
      9          9.044415   0.000000
     10          9.265772   0.000000
     11          9.819218   0.000000
     12          9.886513   0.000000
 
  0.5000000E+00  0.1666667E+00  0.0000000E+00  0.1111111E+00
      1        -19.663793   1.000000
      2        -19.544575   1.000000
      3        -19.532225   1.000000
      4         -9.429699   1.000000
      5         -0.771582   1.000000
      6          0.760239   1.000000
      7          1.086609   1.000000
      8          7.975079   0.000000
      9          9.720917   0.000000
     10         10.246920   0.000000
     11         10.350792   0.000000
     12         10.847352   0.000000
 
 -0.3333333E+00  0.1666667E+00  0.0000000E+00  0.1111111E+00
      1        -19.652283   1.000000
      2        -19.551889   1.000000
      3        -19.522487   1.000000
      4         -9.479365   1.000000
      5         -0.646453   1.000000
      6          0.857018   1.000000
      7          1.063496   1.000000
      8          8.422989   0.000000
      9          9.386867   0.000000
     10          9.663673   0.000000
     11         10.022726   0.000000
     12         10.537911   0.000000
 
 -0.1666667E+00  0.1666667E+00  0.0000000E+00  0.5555556E-01
      1        -19.597973   1.000000
      2        -19.538091   1.000000
      3        -19.513437   1.000000
      4         -9.805993   1.000000
      5          0.201361   1.000000
      6          1.412093   1.000000
      7          1.441299   1.000000
      8          7.977037   0.000000
      9          8.437954   0.000000
     10          8.615580   0.000000
     11          9.183944   0.000000
     12         10.322324   0.000000
 
  0.3333333E+00  0.3333333E+00  0.0000000E+00  0.2777778E-01
      1        -19.615745   1.000000
      2        -19.549288   1.000000
      3        -19.549276   1.000000
      4         -9.660136   1.000000
      5         -0.258712   1.000000
      6          1.448447   1.000000
      7          1.448487   1.000000
      8          6.048232   0.000000
      9          9.095449   0.000000
     10          9.095645   0.000000
     11         10.430270   0.000000
     12         10.431146   0.000000
 
  0.5000000E+00  0.3333333E+00  0.0000000E+00  0.1111111E+00
      1        -19.631802   1.000000
      2        -19.572536   1.000000
      3        -19.552211   1.000000
      4         -9.520818   1.000000
      5         -0.287091   1.000000
      6          0.790906   1.000000
      7          1.229536   1.000000
      8          6.464039   0.000000
      9          9.782992   0.000000
     10         10.272975   0.000000
     11         10.392157   0.000000
     12         10.735595   0.000000
 
 -0.3333333E+00  0.3333333E+00  0.0000000E+00  0.5555556E-01
      1        -19.621975   1.000000
      2        -19.602211   1.000000
      3        -19.538868   1.000000
      4         -9.427712   1.000000
      5         -0.206338   1.000000
      6          0.175753   1.000000
      7          1.044692   1.000000
      8          7.881817   0.000000
      9          9.642912   0.000000
     10          9.915961   0.000000
     11         10.026421   0.000000
     12         11.183588   0.000000
 
  0.5000000E+00  0.5000000E+00  0.0000000E+00  0.1388889E-01
      1        -19.639669   1.000000
      2        -19.562144   1.000000
      3        -19.562132   1.000000
      4         -9.564989   1.000000
      5         -0.328079   1.000000
      6          1.305730   1.000000
      7          1.305767   1.000000
      8          5.659695   0.000000
      9          9.285256   0.000000
     10          9.368971   0.000000
     11         10.685592   0.000000
     12         10.790886   0.000000
 
  0.5000000E+00  0.3333333E+00  0.1666667E+00  0.1111111E+00
      1        -19.630114   1.000000
      2        -19.566792   1.000000
      3        -19.537945   1.000000
      4         -9.523953   1.000000
      5         -0.360118   1.000000
      6          0.877041   1.000000
      7          1.042974   1.000000
      8          7.381286   0.000000
      9          9.342921   0.000000
     10          9.928811   0.000000
     11         10.244509   0.000000
     12         10.579278   0.000000
 
 -0.3333333E+00  0.3333333E+00  0.1666667E+00  0.1111111E+00
      1        -19.633884   1.000000
      2        -19.581182   1.000000
      3        -19.547989   1.000000
      4         -9.427703   1.000000
      5         -0.311146   1.000000
      6          0.422161   1.000000
      7          0.889845   1.000000
      8          8.420820   0.000000
      9          8.584110   0.000000
     10         10.146150   0.000000
     11         10.458517   0.000000
     12         10.591906   0.000000
 
 -0.3333333E+00  0.5000000E+00  0.1666667E+00  0.5555556E-01
      1        -19.620107   1.000000
      2        -19.581331   1.000000
      3        -19.569401   1.000000
      4         -9.474143   1.000000
      5         -0.069153   1.000000
      6          0.678743   1.000000
      7          0.730590   1.000000
      8          7.071002   0.000000
      9          9.499754   0.000000
     10          9.642300   0.000000
     11         10.357079   0.000000
     12         10.811179   0.000000
 
  0.5000000E+00  0.5000000E+00  0.5000000E+00  0.0000000E+00
      1        -19.687704   1.000000
      2        -19.522163   1.000000
      3        -19.522154   1.000000
      4         -9.382448   1.000000
      5         -1.134764   1.000000
      6          1.019277   1.000000
      7          1.019298   1.000000
      8          8.376106   0.000000
      9          9.856971   0.000000
     10         10.101552   0.000000
     11         10.101555   0.000000
     12         12.202405   0.000000
 
  0.5000000E+00  0.4722000E+00  0.5278000E+00  0.0000000E+00
      1        -19.685901   1.000000
      2        -19.524559   1.000000
      3        -19.522845   1.000000
      4         -9.384250   1.000000
      5         -1.108241   1.000000
      6          0.991745   1.000000
      7          1.020185   1.000000
      8          8.392473   0.000000
      9          9.797074   0.000000
     10         10.100899   0.000000
     11         10.133743   0.000000
     12         12.024479   0.000000
 
  0.5000000E+00  0.4444000E+00  0.5556000E+00  0.0000000E+00
      1        -19.680605   1.000000
      2        -19.531437   1.000000
      3        -19.524912   1.000000
      4         -9.389429   1.000000
      5         -1.029910   1.000000
      6          0.914484   1.000000
      7          1.021148   1.000000
      8          8.428734   0.000000
      9          9.606066   0.000000
     10         10.133792   0.000000
     11         10.234944   0.000000
     12         11.669504   0.000000
 
  0.5000000E+00  0.4167000E+00  0.5833000E+00  0.0000000E+00
      1        -19.672186   1.000000
      2        -19.541915   1.000000
      3        -19.528402   1.000000
      4         -9.397360   1.000000
      5         -0.904032   1.000000
      6          0.801758   1.000000
      7          1.017052   1.000000
      8          8.458237   0.000000
      9          9.334183   0.000000
     10         10.208426   0.000000
     11         10.386187   0.000000
     12         11.334567   0.000000
 
  0.5000000E+00  0.3889000E+00  0.6111000E+00  0.0000000E+00
      1        -19.661095   1.000000
      2        -19.554775   1.000000
      3        -19.533401   1.000000
      4         -9.407195   1.000000
      5         -0.735878   1.000000
      6          0.670577   1.000000
      7          0.999991   1.000000
      8          8.464230   0.000000
      9          9.044712   0.000000
     10         10.317035   0.000000
     11         10.519742   0.000000
     12         10.944232   0.000000
 
  0.5000000E+00  0.3611000E+00  0.6389000E+00  0.0000000E+00
      1        -19.648051   1.000000
      2        -19.568412   1.000000
      3        -19.539946   1.000000
      4         -9.417742   1.000000
      5         -0.534429   1.000000
      6          0.539004   1.000000
      7          0.960469   1.000000
      8          8.448144   0.000000
      9          8.784688   0.000000
     10         10.393508   0.000000
     11         10.524184   0.000000
     12         10.585614   0.000000
 
  0.5000000E+00  0.3333000E+00  0.6667000E+00  0.0000000E+00
      1        -19.633880   1.000000
      2        -19.581188   1.000000
      3        -19.547994   1.000000
      4         -9.427713   1.000000
      5         -0.310866   1.000000
      6          0.422019   1.000000
      7          0.889744   1.000000
      8          8.420765   0.000000
      9          8.584158   0.000000
     10         10.171779   0.000000
     11         10.456748   0.000000
     12         10.566414   0.000000
 
  0.5000000E+00  0.3056000E+00  0.6944000E+00  0.0000000E+00
      1        -19.619646   1.000000
      2        -19.591540   1.000000
      3        -19.557241   1.000000
      4         -9.435866   1.000000
      5         -0.080627   1.000000
      6          0.331197   1.000000
      7          0.783827   1.000000
      8          8.394190   0.000000
      9          8.453108   0.000000
     10          9.846567   0.000000
     11         10.372193   0.000000
     12         10.699151   0.000000
 
  0.5000000E+00  0.2778000E+00  0.7222000E+00  0.0000000E+00
      1        -19.606936   1.000000
      2        -19.598305   1.000000
      3        -19.566672   1.000000
      4         -9.441234   1.000000
      5          0.134598   1.000000
      6          0.273539   1.000000
      7          0.650010   1.000000
      8          8.375175   0.000000
      9          8.386793   0.000000
     10          9.637372   0.000000
     11         10.313733   0.000000
     12         10.775263   0.000000
 
  0.5000000E+00  0.2500000E+00  0.7500000E+00  0.0000000E+00
      1        -19.600674   1.000000
      2        -19.600658   1.000000
      3        -19.571808   1.000000
      4         -9.443099   1.000000
      5          0.253870   1.000000
      6          0.253874   1.000000
      7          0.558996   1.000000
      8          8.368163   0.000000
      9          8.368508   0.000000
     10          9.561477   0.000000
     11         10.293152   0.000000
     12         10.803279   0.000000
 
  0.5000000E+00  0.2222000E+00  0.7222000E+00  0.0000000E+00
      1        -19.607411   1.000000
      2        -19.593930   1.000000
      3        -19.571511   1.000000
      4         -9.446873   1.000000
      5          0.132578   1.000000
      6          0.387046   1.000000
      7          0.579278   1.000000
      8          7.921065   0.000000
      9          8.814893   0.000000
     10          9.552185   0.000000
     11         10.302779   0.000000
     12         10.802776   0.000000
 
  0.5000000E+00  0.1944000E+00  0.6944000E+00  0.0000000E+00
      1        -19.613965   1.000000
      2        -19.587415   1.000000
      3        -19.570674   1.000000
      4         -9.457699   1.000000
      5          0.024570   1.000000
      6          0.529895   1.000000
      7          0.638404   1.000000
      8          7.485005   0.000000
      9          9.246766   0.000000
     10          9.526797   0.000000
     11         10.327720   0.000000
     12         10.803003   0.000000
 
  0.5000000E+00  0.1667000E+00  0.6667000E+00  0.0000000E+00
      1        -19.620109   1.000000
      2        -19.581338   1.000000
      3        -19.569394   1.000000
      4         -9.474120   1.000000
      5         -0.069056   1.000000
      6          0.678551   1.000000
      7          0.730476   1.000000
      8          7.071432   0.000000
      9          9.502434   0.000000
     10          9.646432   0.000000
     11         10.354414   0.000000
     12         10.802759   0.000000
 
  0.5000000E+00  0.1389000E+00  0.6389000E+00  0.0000000E+00
      1        -19.625690   1.000000
      2        -19.575841   1.000000
      3        -19.567815   1.000000
      4         -9.494176   1.000000
      5         -0.148568   1.000000
      6          0.829228   1.000000
      7          0.847263   1.000000
      8          6.688152   0.000000
      9          9.456009   0.000000
     10         10.012653   0.000000
     11         10.359690   0.000000
     12         10.810609   0.000000
 
  0.5000000E+00  0.1111000E+00  0.6111000E+00  0.0000000E+00
      1        -19.630519   1.000000
      2        -19.571104   1.000000
      3        -19.566142   1.000000
      4         -9.515354   1.000000
      5         -0.213464   1.000000
      6          0.974602   1.000000
      7          0.976162   1.000000
      8          6.347644   0.000000
      9          9.414687   0.000000
     10         10.266730   0.000000
     11         10.529527   0.000000
     12         10.710797   0.000000
 
  0.5000000E+00  0.8330000E-01  0.5833000E+00  0.0000000E+00
      1        -19.634436   1.000000
      2        -19.567263   1.000000
      3        -19.564556   1.000000
      4         -9.535096   1.000000
      5         -0.263778   1.000000
      6          1.102183   1.000000
      7          1.105727   1.000000
      8          6.061794   0.000000
      9          9.397766   0.000000
     10         10.055118   0.000000
     11         10.542844   0.000000
     12         10.756191   0.000000
 
  0.5000000E+00  0.5560000E-01  0.5556000E+00  0.0000000E+00
      1        -19.637313   1.000000
      2        -19.564450   1.000000
      3        -19.563274   1.000000
      4         -9.551019   1.000000
      5         -0.299483   1.000000
      6          1.208518   1.000000
      7          1.211475   1.000000
      8          5.844520   0.000000
      9          9.355895   0.000000
     10          9.572400   0.000000
     11         10.670269   0.000000
     12         10.745191   0.000000
 
  0.5000000E+00  0.2780000E-01  0.5278000E+00  0.0000000E+00
      1        -19.639082   1.000000
      2        -19.562720   1.000000
      3        -19.562433   1.000000
      4         -9.561396   1.000000
      5         -0.320942   1.000000
      6          1.280362   1.000000
      7          1.281289   1.000000
      8          5.706773   0.000000
      9          9.323459   0.000000
     10          9.404975   0.000000
     11         10.739384   0.000000
     12         10.785629   0.000000
 
  0.5000000E+00  0.0000000E+00  0.5000000E+00  0.0000000E+00
      1        -19.639677   1.000000
      2        -19.562139   1.000000
      3        -19.562128   1.000000
      4         -9.564988   1.000000
      5         -0.328083   1.000000
      6          1.305735   1.000000
      7          1.305757   1.000000
      8          5.659636   0.000000
      9          9.292642   0.000000
     10          9.363269   0.000000
     11         10.702319   0.000000
     12         10.790468   0.000000
 
  0.4444000E+00  0.0000000E+00  0.4444000E+00  0.0000000E+00
      1        -19.637061   1.000000
      2        -19.560582   1.000000
      3        -19.560570   1.000000
      4         -9.573058   1.000000
      5         -0.335953   1.000000
      6          1.321036   1.000000
      7          1.321052   1.000000
      8          5.704033   0.000000
      9          9.331902   0.000000
     10          9.334508   0.000000
     11         10.753214   0.000000
     12         10.772248   0.000000
 
  0.3889000E+00  0.0000000E+00  0.3889000E+00  0.0000000E+00
      1        -19.629127   1.000000
      2        -19.556109   1.000000
      3        -19.556098   1.000000
      4         -9.601563   1.000000
      5         -0.333228   1.000000
      6          1.367850   1.000000
      7          1.367867   1.000000
      8          5.835309   0.000000
      9          9.272005   0.000000
     10          9.284105   0.000000
     11         10.681568   0.000000
     12         10.720556   0.000000
 
  0.3333000E+00  0.0000000E+00  0.3333000E+00  0.0000000E+00
      1        -19.615744   1.000000
      2        -19.549279   1.000000
      3        -19.549267   1.000000
      4         -9.660181   1.000000
      5         -0.258641   1.000000
      6          1.448512   1.000000
      7          1.448531   1.000000
      8          6.048356   0.000000
      9          9.094901   0.000000
     10          9.097054   0.000000
     11         10.430174   0.000000
     12         10.436705   0.000000
 
  0.2778000E+00  0.0000000E+00  0.2778000E+00  0.0000000E+00
      1        -19.597326   1.000000
      2        -19.540964   1.000000
      3        -19.540952   1.000000
      4         -9.755050   1.000000
      5         -0.052270   1.000000
      6          1.563826   1.000000
      7          1.563842   1.000000
      8          6.331996   0.000000
      9          8.772458   0.000000
     10          8.927688   0.000000
     11          9.973253   0.000000
     12          9.973724   0.000000
 
  0.2222000E+00  0.0000000E+00  0.2222000E+00  0.0000000E+00
      1        -19.575169   1.000000
      2        -19.532159   1.000000
      3        -19.532147   1.000000
      4         -9.881565   1.000000
      5          0.317826   1.000000
      6          1.710966   1.000000
      7          1.710994   1.000000
      8          6.669657   0.000000
      9          8.430908   0.000000
     10          8.772425   0.000000
     11          9.371344   0.000000
     12          9.570770   0.000000
 
  0.1667000E+00  0.0000000E+00  0.1667000E+00  0.0000000E+00
      1        -19.551939   1.000000
      2        -19.523959   1.000000
      3        -19.523947   1.000000
      4        -10.021079   1.000000
      5          0.838055   1.000000
      6          1.877828   1.000000
      7          1.877859   1.000000
      8          7.030401   0.000000
      9          8.114290   0.000000
     10          8.607151   0.000000
     11          8.747312   0.000000
     12          8.764700   0.000000
 
  0.1111000E+00  0.0000000E+00  0.1111000E+00  0.0000000E+00
      1        -19.531144   1.000000
      2        -19.517300   1.000000
      3        -19.517288   1.000000
      4        -10.147983   1.000000
      5          1.442651   1.000000
      6          2.041293   1.000000
      7          2.041321   1.000000
      8          7.371199   0.000000
      9          7.818135   0.000000
     10          8.209553   0.000000
     11          8.446712   0.000000
     12          8.556270   0.000000
 
  0.5560000E-01  0.0000000E+00  0.5560000E-01  0.0000000E+00
      1        -19.516693   1.000000
      2        -19.512985   1.000000
      3        -19.512973   1.000000
      4        -10.236213   1.000000
      5          1.980891   1.000000
      6          2.164989   1.000000
      7          2.165015   1.000000
      8          7.505529   0.000000
      9          7.623127   0.000000
     10          7.844769   0.000000
     11          8.072588   0.000000
     12          8.501241   0.000000
 
  0.0000000E+00  0.0000000E+00  0.0000000E+00  0.0000000E+00
      1        -19.511497   1.000000
      2        -19.511482   1.000000
      3        -19.511475   1.000000
      4        -10.267866   1.000000
      5          2.211910   1.000000
      6          2.211968   1.000000
      7          2.212033   1.000000
      8          7.327896   0.000000
      9          7.714534   0.000000
     10          7.714992   0.000000
     11          7.995451   0.000000
     12          8.385466   0.000000
 
  0.5560000E-01  0.5560000E-01  0.5560000E-01  0.0000000E+00
      1        -19.517025   1.000000
      2        -19.511811   1.000000
      3        -19.511802   1.000000
      4        -10.243890   1.000000
      5          2.056599   1.000000
      6          2.164160   1.000000
      7          2.164200   1.000000
      8          7.467461   0.000000
      9          7.758512   0.000000
     10          7.767203   0.000000
     11          8.146596   0.000000
     12          8.470435   0.000000
 
  0.1111000E+00  0.1111000E+00  0.1111000E+00  0.0000000E+00
      1        -19.532827   1.000000
      2        -19.512736   1.000000
      3        -19.512727   1.000000
      4        -10.174269   1.000000
      5          1.652783   1.000000
      6          2.033147   1.000000
      7          2.033204   1.000000
      8          7.604399   0.000000
      9          7.917647   0.000000
     10          7.962236   0.000000
     11          8.179022   0.000000
     12          8.719482   0.000000
 
  0.1667000E+00  0.1667000E+00  0.1667000E+00  0.0000000E+00
      1        -19.556863   1.000000
      2        -19.514157   1.000000
      3        -19.514148   1.000000
      4        -10.065180   1.000000
      5          1.116820   1.000000
      6          1.847379   1.000000
      7          1.847419   1.000000
      8          7.599530   0.000000
      9          8.147794   0.000000
     10          8.161525   0.000000
     11          8.688884   0.000000
     12          9.112979   0.000000
 
  0.2222000E+00  0.2222000E+00  0.2222000E+00  0.0000000E+00
      1        -19.585953   1.000000
      2        -19.515901   1.000000
      3        -19.515893   1.000000
      4         -9.927434   1.000000
      5          0.546528   1.000000
      6          1.640186   1.000000
      7          1.640258   1.000000
      8          7.635976   0.000000
      9          8.446068   0.000000
     10          8.456388   0.000000
     11          9.367321   0.000000
     12          9.609879   0.000000
 
  0.2778000E+00  0.2778000E+00  0.2778000E+00  0.0000000E+00
      1        -19.616557   1.000000
      2        -19.517756   1.000000
      3        -19.517747   1.000000
      4         -9.774858   1.000000
      5          0.003971   1.000000
      6          1.438780   1.000000
      7          1.438823   1.000000
      8          7.725211   0.000000
      9          8.804897   0.000000
     10          8.805735   0.000000
     11          9.925140   0.000000
     12         10.168368   0.000000
 
  0.3333000E+00  0.3333000E+00  0.3333000E+00  0.0000000E+00
      1        -19.644898   1.000000
      2        -19.519498   1.000000
      3        -19.519489   1.000000
      4         -9.625539   1.000000
      5         -0.464673   1.000000
      6          1.264491   1.000000
      7          1.264551   1.000000
      8          7.876121   0.000000
      9          9.204447   0.000000
     10          9.206309   0.000000
     11         10.212724   0.000000
     12         10.738008   0.000000
 
  0.3889000E+00  0.3889000E+00  0.3889000E+00  0.0000000E+00
      1        -19.667782   1.000000
      2        -19.520921   1.000000
      3        -19.520912   1.000000
      4         -9.498460   1.000000
      5         -0.827195   1.000000
      6          1.130941   1.000000
      7          1.130987   1.000000
      8          8.077262   0.000000
      9          9.614574   0.000000
     10          9.615083   0.000000
     11         10.171848   0.000000
     12         11.274406   0.000000
 
  0.4444000E+00  0.4444000E+00  0.4444000E+00  0.0000000E+00
      1        -19.682576   1.000000
      2        -19.521842   1.000000
      3        -19.521833   1.000000
      4         -9.412836   1.000000
      5         -1.056158   1.000000
      6          1.047623   1.000000
      7          1.047644   1.000000
      8          8.279934   0.000000
      9          9.957879   0.000000
     10          9.957973   0.000000
     11          9.968531   0.000000
     12         11.854960   0.000000
 
  0.5000000E+00  0.5000000E+00  0.5000000E+00  0.0000000E+00
      1        -19.687704   1.000000
      2        -19.522163   1.000000
      3        -19.522154   1.000000
      4         -9.382448   1.000000
      5         -1.134764   1.000000
      6          1.019283   1.000000
      7          1.019310   1.000000
      8          8.376048   0.000000
      9          9.857146   0.000000
     10         10.101464   0.000000
     11         10.101792   0.000000
     12         12.175543   0.000000
