    9    9    1    2
  0.2061118E+02  0.6388845E-09  0.6388845E-09  0.5158047E-09  0.5000000E-15
  1.000000000000000E-004
  CAR 
 Cs2F6Nb1_ICSD_72832                     
   73  220   92
 
  0.0000000E+00  0.0000000E+00  0.0000000E+00  0.4545455E-02
   1      -55.0942    -54.5250
   2      -31.6360    -31.4109
   3      -31.2110    -30.4632
   4      -31.1016    -30.2147
   5      -22.1926    -22.1973
   6      -21.5546    -21.5512
   7      -21.5182    -21.4743
   8      -21.3797    -21.3400
   9      -21.0280    -20.9657
  10      -21.0017    -20.9381
  11      -19.2391    -19.2382
  12      -19.1972    -19.1970
  13       -6.5960     -6.5688
  14       -6.5600     -6.5536
  15       -6.3412     -6.3335
  16       -6.0508     -6.0499
  17       -6.0059     -6.0027
  18       -5.9441     -5.9436
  19       -4.9133     -4.8570
  20       -4.2107     -4.1564
  21       -4.1955     -4.1394
  22       -3.9417     -3.8627
  23       -3.8348     -3.7875
  24       -3.5993     -3.5115
  25       -3.5091     -3.3460
  26       -3.3637     -3.3117
  27       -3.3229     -3.2082
  28       -2.9073     -2.8685
  29       -2.7916     -2.7602
  30       -2.5629     -2.5513
  31       -2.4158     -2.3823
  32       -2.4039     -2.3523
  33       -2.2793     -2.2724
  34       -2.2298     -2.2175
  35       -2.2274     -2.1559
  36       -2.0126     -1.9165
  37        2.4386      4.0954
  38        3.6847      4.1295
  39        3.7019      4.8756
  40        5.2037      5.2758
  41        7.0761      7.1292
  42        7.0950      7.2771
  43        7.1189      7.4102
  44        7.8937      7.9689
  45        7.9324      8.0222
  46        7.9686      8.0445
  47        8.0292      8.0767
  48        8.3148      8.3535
  49        8.3598      8.3740
  50        8.5688      8.5817
  51        9.8444      9.8561
  52        9.8606      9.8907
  53       11.0343     11.1034
  54       11.3240     11.4318
  55       12.5579     12.5968
  56       12.8175     12.8270
  57       12.9942     13.0638
  58       14.1689     14.1676
  59       14.3373     14.3615
  60       14.7272     14.8349
  61       14.9291     15.0699
  62       15.1391     15.3136
  63       15.5055     15.7625
  64       16.5470     16.5533
  65       16.5806     16.5899
  66       16.7444     16.7992
  67       16.7797     16.8186
  68       16.9605     17.0156
  69       17.1335     17.1497
  70       18.0933     18.1452
  71       18.6138     18.6390
  72       18.6910     18.7498
  73       19.4845     19.4916
  74       19.4867     19.5111
  75       19.5213     19.5217
  76       19.5768     19.7370
  77       19.9840     20.0007
  78       19.9877     20.1835
  79       21.1120     21.1544
  80       21.4456     21.4537
  81       21.6288     21.6375
  82       21.7201     21.7676
  83       21.7735     21.8327
  84       21.7978     21.8491
  85       21.8596     22.1900
  86       22.1006     22.2124
  87       22.5619     22.6954
  88       23.0486     23.1743
  89       23.4426     23.5063
  90       24.3009     24.3343
  91       24.3522     24.3550
  92       25.5791     25.5589
 
  0.2631579E-01  0.2631579E-01  0.0000000E+00  0.4545455E-02
   1      -55.0942    -54.5250
   2      -31.6360    -31.4109
   3      -31.2110    -30.4632
   4      -31.1016    -30.2147
   5      -22.1925    -22.1972
   6      -21.5549    -21.5513
   7      -21.5180    -21.4742
   8      -21.3797    -21.3400
   9      -21.0280    -20.9657
  10      -21.0017    -20.9381
  11      -19.2391    -19.2382
  12      -19.1974    -19.1971
  13       -6.5936     -6.5667
  14       -6.5591     -6.5528
  15       -6.3409     -6.3332
  16       -6.0506     -6.0496
  17       -6.0052     -6.0019
  18       -5.9453     -5.9446
  19       -4.9134     -4.8572
  20       -4.2109     -4.1566
  21       -4.1943     -4.1384
  22       -3.9440     -3.8651
  23       -3.8357     -3.7884
  24       -3.6037     -3.5110
  25       -3.5047     -3.3443
  26       -3.3620     -3.3114
  27       -3.3226     -3.2087
  28       -2.9069     -2.8682
  29       -2.7928     -2.7613
  30       -2.5638     -2.5521
  31       -2.4164     -2.3842
  32       -2.4061     -2.3530
  33       -2.2798     -2.2727
  34       -2.2357     -2.2194
  35       -2.2232     -2.1562
  36       -2.0130     -1.9168
  37        2.4386      4.0959
  38        3.6851      4.1302
  39        3.7025      4.8765
  40        5.2106      5.2825
  41        7.0427      7.1220
  42        7.0948      7.2767
  43        7.1492      7.4117
  44        7.8756      7.9597
  45        7.9464      8.0152
  46        7.9624      8.0565
  47        8.0403      8.0836
  48        8.3202      8.3595
  49        8.3614      8.3755
  50        8.5711      8.5833
  51        9.8466      9.8584
  52        9.8576      9.8876
  53       11.0399     11.1098
  54       11.3313     11.4383
  55       12.5583     12.5977
  56       12.8008     12.8106
  57       12.9694     13.0407
  58       14.1712     14.1702
  59       14.3492     14.3737
  60       14.7377     14.8449
  61       14.9211     15.0615
  62       15.1401     15.3157
  63       15.5070     15.7592
  64       16.4960     16.5019
  65       16.6239     16.6361
  66       16.6558     16.7052
  67       16.7871     16.8238
  68       16.9908     17.0450
  69       17.1911     17.2160
  70       18.1031     18.1546
  71       18.6136     18.6385
  72       18.6567     18.7115
  73       19.4360     19.4560
  74       19.4446     19.4645
  75       19.5577     19.6123
  76       19.6032     19.7017
  77       19.9761     20.0441
  78       20.0901     20.2380
  79       21.1103     21.1534
  80       21.4314     21.4404
  81       21.6214     21.6343
  82       21.6668     21.6921
  83       21.7386     21.7993
  84       21.7474     21.9092
  85       21.9323     22.1773
  86       22.1419     22.2455
  87       22.5627     22.6889
  88       23.0761     23.2030
  89       23.4476     23.5161
  90       24.2760     24.3171
  91       24.3659     24.3277
  92       25.5069     25.8632
 
  0.5263158E-01  0.5263158E-01  0.0000000E+00  0.4545455E-02
   1      -55.0942    -54.5250
   2      -31.6360    -31.4109
   3      -31.2110    -30.4632
   4      -31.1016    -30.2147
   5      -22.1922    -22.1969
   6      -21.5556    -21.5518
   7      -21.5173    -21.4737
   8      -21.3796    -21.3399
   9      -21.0281    -20.9658
  10      -21.0019    -20.9383
  11      -19.2390    -19.2381
  12      -19.1979    -19.1976
  13       -6.5866     -6.5603
  14       -6.5564     -6.5502
  15       -6.3400     -6.3322
  16       -6.0499     -6.0489
  17       -6.0029     -5.9997
  18       -5.9488     -5.9475
  19       -4.9136     -4.8578
  20       -4.2115     -4.1572
  21       -4.1909     -4.1355
  22       -3.9508     -3.8718
  23       -3.8383     -3.7909
  24       -3.6151     -3.5095
  25       -3.4937     -3.3391
  26       -3.3569     -3.3104
  27       -3.3217     -3.2100
  28       -2.9058     -2.8671
  29       -2.7964     -2.7649
  30       -2.5663     -2.5544
  31       -2.4183     -2.3898
  32       -2.4129     -2.3552
  33       -2.2811     -2.2739
  34       -2.2442     -2.2247
  35       -2.2199     -2.1573
  36       -2.0138     -1.9178
  37        2.4388      4.0973
  38        3.6865      4.1322
  39        3.7044      4.8794
  40        5.2313      5.3023
  41        6.9920      7.1015
  42        7.0944      7.2757
  43        7.1905      7.4153
  44        7.8430      7.9373
  45        7.9501      8.0048
  46        7.9682      8.0816
  47        8.0668      8.1004
  48        8.3351      8.3751
  49        8.3665      8.3806
  50        8.5781      8.5886
  51        9.8491      9.8650
  52        9.8532      9.8785
  53       11.0562     11.1285
  54       11.3531     11.4578
  55       12.5585     12.5997
  56       12.7520     12.7629
  57       12.9010     12.9768
  58       14.1771     14.1771
  59       14.3784     14.4055
  60       14.7685     14.8737
  61       14.9017     15.0385
  62       15.1447     15.3229
  63       15.5076     15.7467
  64       16.4313     16.4365
  65       16.4992     16.5427
  66       16.6639     16.6842
  67       16.8110     16.8407
  68       17.0041     17.0597
  69       17.3354     17.3709
  70       18.1302     18.1805
  71       18.5710     18.6175
  72       18.6127     18.6366
  73       19.3264     19.3677
  74       19.4057     19.4298
  75       19.5143     19.6366
  76       19.7450     19.7587
  77       20.0480     20.1444
  78       20.2502     20.3708
  79       21.1051     21.1504
  80       21.3835     21.3962
  81       21.5656     21.5858
  82       21.5880     21.6221
  83       21.6689     21.7288
  84       21.6835     21.9417
  85       22.0183     22.1666
  86       22.2394     22.3292
  87       22.5691     22.6739
  88       23.1518     23.2815
  89       23.4687     23.5477
  90       24.2075     24.2366
  91       24.2932     24.2918
  92       25.6367     25.6600
 
  0.7894737E-01  0.7894737E-01  0.0000000E+00  0.4545455E-02
   1      -55.0942    -54.5250
   2      -31.6360    -31.4109
   3      -31.2110    -30.4632
   4      -31.1016    -30.2147
   5      -22.1917    -22.1964
   6      -21.5567    -21.5525
   7      -21.5162    -21.4729
   8      -21.3796    -21.3399
   9      -21.0282    -20.9659
  10      -21.0021    -20.9386
  11      -19.2390    -19.2380
  12      -19.1987    -19.1984
  13       -6.5751     -6.5498
  14       -6.5520     -6.5460
  15       -6.3384     -6.3306
  16       -6.0489     -6.0478
  17       -5.9994     -5.9962
  18       -5.9544     -5.9522
  19       -4.9142     -4.8588
  20       -4.2123     -4.1580
  21       -4.1853     -4.1307
  22       -3.9615     -3.8824
  23       -3.8427     -3.7952
  24       -3.6303     -3.5070
  25       -3.4792     -3.3310
  26       -3.3489     -3.3088
  27       -3.3203     -3.2125
  28       -2.9039     -2.8652
  29       -2.8023     -2.7707
  30       -2.5704     -2.5582
  31       -2.4240     -2.3991
  32       -2.4212     -2.3587
  33       -2.2832     -2.2758
  34       -2.2537     -2.2329
  35       -2.2185     -2.1592
  36       -2.0153     -1.9195
  37        2.4390      4.0997
  38        3.6886      4.1355
  39        3.7074      4.8839
  40        5.2655      5.3351
  41        6.9380      7.0703
  42        7.0940      7.2746
  43        7.2290      7.4189
  44        7.8068      7.9101
  45        7.9369      7.9942
  46        7.9898      8.1146
  47        8.1018      8.1223
  48        8.3563      8.3904
  49        8.3764      8.3957
  50        8.5897      8.5983
  51        9.8353      9.8638
  52        9.8640      9.8758
  53       11.0817     11.1578
  54       11.3891     11.4897
  55       12.5527     12.5994
  56       12.6755     12.6878
  57       12.8061     12.8860
  58       14.1847     14.1864
  59       14.4081     14.4444
  60       14.8164     14.9187
  61       14.8808     15.0063
  62       15.1575     15.3387
  63       15.4979     15.7191
  64       16.3341     16.3731
  65       16.3711     16.3758
  66       16.6844     16.7153
  67       16.8489     16.8697
  68       17.0071     17.0719
  69       17.5068     17.5466
  70       18.1683     18.2175
  71       18.4624     18.5008
  72       18.6106     18.6328
  73       19.1988     19.2567
  74       19.3683     19.3957
  75       19.4672     19.5748
  76       19.9201     19.9402
  77       20.1659     20.2766
  78       20.4326     20.5381
  79       21.0935     21.1457
  80       21.3063     21.3245
  81       21.4583     21.4798
  82       21.4801     21.5362
  83       21.5714     21.7194
  84       21.6968     21.8884
  85       22.0629     22.1775
  86       22.3640     22.4420
  87       22.5985     22.6730
  88       23.2596     23.3932
  89       23.4956     23.5819
  90       24.0687     24.1357
  91       24.2442     24.2516
  92       25.5983     25.5149
 
  0.1052632E+00  0.1052632E+00  0.0000000E+00  0.4545455E-02
   1      -55.0942    -54.5250
   2      -31.6360    -31.4109
   3      -31.2110    -30.4632
   4      -31.1016    -30.2147
   5      -22.1911    -22.1958
   6      -21.5580    -21.5534
   7      -21.5148    -21.4719
   8      -21.3795    -21.3398
   9      -21.0283    -20.9660
  10      -21.0024    -20.9389
  11      -19.2388    -19.2379
  12      -19.1998    -19.1995
  13       -6.5594     -6.5401
  14       -6.5460     -6.5354
  15       -6.3361     -6.3281
  16       -6.0474     -6.0463
  17       -5.9949     -5.9918
  18       -5.9617     -5.9583
  19       -4.9151     -4.8603
  20       -4.2136     -4.1592
  21       -4.1779     -4.1244
  22       -3.9755     -3.8960
  23       -3.8486     -3.8009
  24       -3.6474     -3.5036
  25       -3.4634     -3.3203
  26       -3.3383     -3.3066
  27       -3.3184     -3.2163
  28       -2.9015     -2.8628
  29       -2.8104     -2.7787
  30       -2.5762     -2.5635
  31       -2.4393     -2.4121
  32       -2.4251     -2.3634
  33       -2.2862     -2.2785
  34       -2.2640     -2.2431
  35       -2.2188     -2.1621
  36       -2.0173     -1.9218
  37        2.4394      4.1028
  38        3.6916      4.1400
  39        3.7116      4.8897
  40        5.3125      5.3807
  41        6.8825      7.0314
  42        7.0940      7.2740
  43        7.2635      7.4205
  44        7.7707      7.8834
  45        7.9239      7.9830
  46        8.0105      8.1466
  47        8.1414      8.1529
  48        8.3809      8.4072
  49        8.3935      8.4177
  50        8.6048      8.6126
  51        9.8170      9.8443
  52        9.8786      9.8904
  53       11.1137     11.1944
  54       11.4381     11.5323
  55       12.5196     12.5845
  56       12.5762     12.5901
  57       12.7196     12.7941
  58       14.1924     14.1964
  59       14.4206     14.4759
  60       14.8653     14.9709
  61       14.8767     14.9753
  62       15.1867     15.3674
  63       15.4691     15.6717
  64       16.1727     16.2082
  65       16.3200     16.3244
  66       16.6913     16.7308
  67       16.8901     16.9042
  68       17.0177     17.0948
  69       17.6820     17.7227
  70       18.2106     18.2596
  71       18.3506     18.3820
  72       18.6058     18.6260
  73       19.0726     19.1426
  74       19.3288     19.3586
  75       19.4250     19.5224
  76       20.1110     20.1386
  77       20.3118     20.4308
  78       20.6137     20.7106
  79       21.0626     21.1360
  80       21.2158     21.2382
  81       21.3421     21.3799
  82       21.3580     21.3972
  83       21.4841     21.7660
  84       21.7474     21.8010
  85       22.0424     22.1501
  86       22.5038     22.5723
  87       22.6684     22.7185
  88       23.3836     23.5224
  89       23.5307     23.6330
  90       23.9322     24.0064
  91       24.1831     24.1862
  92       25.7218     25.5961
 
  0.1315789E+00  0.1315789E+00  0.0000000E+00  0.4545455E-02
   1      -55.0942    -54.5250
   2      -31.6360    -31.4109
   3      -31.2110    -30.4632
   4      -31.1016    -30.2147
   5      -22.1903    -22.1951
   6      -21.5594    -21.5544
   7      -21.5133    -21.4707
   8      -21.3794    -21.3397
   9      -21.0284    -20.9661
  10      -21.0028    -20.9394
  11      -19.2387    -19.2378
  12      -19.2012    -19.2009
  13       -6.5398     -6.5329
  14       -6.5384     -6.5176
  15       -6.3329     -6.3247
  16       -6.0457     -6.0445
  17       -5.9901     -5.9876
  18       -5.9700     -5.9646
  19       -4.9166     -4.8625
  20       -4.2151     -4.1607
  21       -4.1690     -4.1169
  22       -3.9918     -3.9118
  23       -3.8558     -3.8080
  24       -3.6656     -3.4994
  25       -3.4474     -3.3078
  26       -3.3259     -3.3040
  27       -3.3160     -3.2217
  28       -2.8984     -2.8597
  29       -2.8204     -2.7887
  30       -2.5834     -2.5702
  31       -2.4585     -2.4286
  32       -2.4297     -2.3689
  33       -2.2899     -2.2820
  34       -2.2746     -2.2548
  35       -2.2206     -2.1658
  36       -2.0198     -1.9246
  37        2.4398      4.1067
  38        3.6952      4.1456
  39        3.7167      4.8965
  40        5.3716      5.4385
  41        6.8264      6.9872
  42        7.0948      7.2745
  43        7.2933      7.4194
  44        7.7373      7.8601
  45        7.9107      7.9705
  46        8.0298      8.1707
  47        8.1811      8.1921
  48        8.4078      8.4349
  49        8.4217      8.4403
  50        8.6217      8.6300
  51        9.7956      9.8213
  52        9.8964      9.9083
  53       11.1484     11.2337
  54       11.4968     11.5817
  55       12.4305     12.4745
  56       12.4592     12.5288
  57       12.6850     12.7428
  58       14.1994     14.2060
  59       14.4084     14.4890
  60       14.8511     14.9348
  61       14.9434     15.0377
  62       15.2407     15.4133
  63       15.4173     15.6036
  64       16.0203     16.0536
  65       16.2817     16.2858
  66       16.6902     16.7365
  67       16.9259     16.9356
  68       17.0430     17.1324
  69       17.8521     17.8915
  70       18.2459     18.2711
  71       18.2513     18.3017
  72       18.5954     18.6138
  73       18.9564     19.0353
  74       19.2874     19.3195
  75       19.3901     19.4797
  76       20.2947     20.3328
  77       20.4749     20.5980
  78       20.7615     20.8586
  79       20.9815     21.0963
  80       21.1253     21.1481
  81       21.2102     21.2586
  82       21.2885     21.3096
  83       21.4558     21.7389
  84       21.8137     21.8310
  85       21.9673     22.0685
  86       22.6535     22.7144
  87       22.7688     22.8077
  88       23.5097     23.6550
  89       23.5740     23.6862
  90       23.8056     23.8852
  91       24.1289     24.1182
  92       25.4988     25.4911
 
  0.1578947E+00  0.1578947E+00  0.0000000E+00  0.4545455E-02
   1      -55.0942    -54.5250
   2      -31.6360    -31.4109
   3      -31.2110    -30.4632
   4      -31.1016    -30.2147
   5      -22.1894    -22.1942
   6      -21.5608    -21.5555
   7      -21.5118    -21.4694
   8      -21.3793    -21.3396
   9      -21.0286    -20.9663
  10      -21.0033    -20.9399
  11      -19.2385    -19.2376
  12      -19.2028    -19.2026
  13       -6.5295     -6.5243
  14       -6.5167     -6.4967
  15       -6.3288     -6.3203
  16       -6.0438     -6.0425
  17       -5.9889     -5.9868
  18       -5.9752     -5.9678
  19       -4.9187     -4.8653
  20       -4.2168     -4.1625
  21       -4.1593     -4.1088
  22       -4.0090     -3.9283
  23       -3.8642     -3.8162
  24       -3.6846     -3.4946
  25       -3.4319     -3.3009
  26       -3.3133     -3.2940
  27       -3.3121     -3.2288
  28       -2.8950     -2.8562
  29       -2.8321     -2.8004
  30       -2.5920     -2.5782
  31       -2.4809     -2.4481
  32       -2.4346     -2.3750
  33       -2.2944     -2.2861
  34       -2.2854     -2.2671
  35       -2.2237     -2.1703
  36       -2.0226     -1.9278
  37        2.4403      4.1112
  38        3.6994      4.1520
  39        3.7226      4.9039
  40        5.4419      5.5077
  41        6.7707      6.9397
  42        7.0968      7.2767
  43        7.3181      7.4157
  44        7.7088      7.8413
  45        7.8973      7.9566
  46        8.0468      8.1923
  47        8.2159      8.2270
  48        8.4366      8.4649
  49        8.4657      8.4783
  50        8.6386      8.6483
  51        9.7724      9.7962
  52        9.9170      9.9290
  53       11.1798     11.2687
  54       11.5571     11.6291
  55       12.3165     12.3452
  56       12.3285     12.4434
  57       12.6901     12.7406
  58       14.2059     14.2152
  59       14.3765     14.4801
  60       14.8280     14.8960
  61       15.0096     15.0993
  62       15.3081     15.4633
  63       15.3568     15.5322
  64       15.8810     15.9141
  65       16.2591     16.2630
  66       16.6840     16.7364
  67       16.9520     16.9585
  68       17.0838     17.1839
  69       18.0108     18.0461
  70       18.1537     18.1736
  71       18.2872     18.3420
  72       18.5726     18.5918
  73       18.8579     18.9417
  74       19.2454     19.2797
  75       19.3630     19.4462
  76       20.4219     20.4770
  77       20.6334     20.7604
  78       20.7879     20.9501
  79       20.9129     20.9906
  80       21.0458     21.0613
  81       21.1327     21.1727
  82       21.2372     21.2970
  83       21.5444     21.7608
  84       21.8664     21.9043
  85       21.8878     21.9632
  86       22.8105     22.8650
  87       22.8719     22.9080
  88       23.5879     23.7167
  89       23.6215     23.7639
  90       23.7141     23.7994
  91       24.0639     24.0703
  92       25.2459     25.2562
 
  0.1842105E+00  0.1842105E+00  0.0000000E+00  0.4545455E-02
   1      -55.0942    -54.5250
   2      -31.6360    -31.4109
   3      -31.2110    -30.4632
   4      -31.1016    -30.2147
   5      -22.1884    -22.1932
   6      -21.5621    -21.5566
   7      -21.5104    -21.4681
   8      -21.3792    -21.3395
   9      -21.0288    -20.9665
  10      -21.0038    -20.9405
  11      -19.2382    -19.2373
  12      -19.2047    -19.2044
  13       -6.5194     -6.5145
  14       -6.4909     -6.4734
  15       -6.3234     -6.3146
  16       -6.0418     -6.0403
  17       -5.9966     -5.9925
  18       -5.9718     -5.9649
  19       -4.9217     -4.8689
  20       -4.2188     -4.1645
  21       -4.1501     -4.1013
  22       -4.0256     -3.9441
  23       -3.8736     -3.8254
  24       -3.7042     -3.4894
  25       -3.4173     -3.2975
  26       -3.3103     -3.2795
  27       -3.2974     -3.2377
  28       -2.8912     -2.8523
  29       -2.8452     -2.8135
  30       -2.6018     -2.5872
  31       -2.5058     -2.4701
  32       -2.4397     -2.3813
  33       -2.2996     -2.2909
  34       -2.2961     -2.2798
  35       -2.2277     -2.1754
  36       -2.0258     -1.9314
  37        2.4408      4.1162
  38        3.7041      4.1591
  39        3.7291      4.9119
  40        5.5223      5.5873
  41        6.7162      6.8904
  42        7.1003      7.2811
  43        7.3370      7.4101
  44        7.6872      7.8274
  45        7.8833      7.9412
  46        8.0613      8.2098
  47        8.2428      8.2539
  48        8.4657      8.4915
  49        8.5278      8.5401
  50        8.6548      8.6662
  51        9.7490      9.7708
  52        9.9396      9.9517
  53       11.1981     11.2880
  54       11.6035     11.6620
  55       12.1875     12.2053
  56       12.2279     12.3791
  57       12.7127     12.7633
  58       14.2127     14.2246
  59       14.3338     14.4525
  60       14.7899     14.8493
  61       15.0689     15.1537
  62       15.2364     15.3926
  63       15.4380     15.5844
  64       15.7585     15.7948
  65       16.2533     16.2571
  66       16.6760     16.7340
  67       16.9671     16.9713
  68       17.1374     17.2460
  69       18.0765     18.0919
  70       18.1490     18.1765
  71       18.3204     18.3841
  72       18.5249     18.5525
  73       18.7886     18.8691
  74       19.2035     19.2400
  75       19.3436     19.4212
  76       20.4191     20.4893
  77       20.5988     20.8182
  78       20.7858     20.8766
  79       20.9632     20.9839
  80       20.9715     21.0203
  81       21.1953     21.2226
  82       21.2023     21.3050
  83       21.7266     21.8698
  84       21.7759     21.8996
  85       21.9644     21.9804
  86       22.9502     22.9884
  87       22.9723     23.0213
  88       23.5070     23.6413
  89       23.6816     23.8028
  90       23.7675     23.8586
  91       24.0415     24.0959
  92       25.0993     25.1814
 
  0.2105263E+00  0.2105263E+00  0.0000000E+00  0.4545455E-02
   1      -55.0942    -54.5250
   2      -31.6360    -31.4109
   3      -31.2110    -30.4632
   4      -31.1016    -30.2147
   5      -22.1873    -22.1922
   6      -21.5634    -21.5576
   7      -21.5091    -21.4668
   8      -21.3790    -21.3393
   9      -21.0290    -20.9667
  10      -21.0043    -20.9411
  11      -19.2379    -19.2371
  12      -19.2067    -19.2064
  13       -6.5083     -6.5039
  14       -6.4631     -6.4486
  15       -6.3167     -6.3074
  16       -6.0398     -6.0381
  17       -6.0075     -6.0014
  18       -5.9654     -5.9589
  19       -4.9257     -4.8734
  20       -4.2210     -4.1666
  21       -4.1434     -4.0956
  22       -4.0390     -3.9572
  23       -3.8836     -3.8351
  24       -3.7245     -3.4842
  25       -3.4038     -3.2939
  26       -3.3071     -3.2652
  27       -3.2825     -3.2481
  28       -2.8874     -2.8482
  29       -2.8593     -2.8277
  30       -2.6124     -2.5972
  31       -2.5321     -2.4937
  32       -2.4446     -2.3877
  33       -2.3068     -2.2962
  34       -2.3054     -2.2923
  35       -2.2323     -2.1807
  36       -2.0292     -1.9352
  37        2.4414      4.1215
  38        3.7092      4.1667
  39        3.7361      4.9200
  40        5.6113      5.6760
  41        6.6636      6.8409
  42        7.1054      7.2877
  43        7.3491      7.4032
  44        7.6743      7.8180
  45        7.8687      7.9244
  46        8.0737      8.2232
  47        8.2621      8.2729
  48        8.4907      8.5168
  49        8.6068      8.6192
  50        8.6726      8.6857
  51        9.7265      9.7463
  52        9.9636      9.9758
  53       11.1861     11.2722
  54       11.6219     11.6770
  55       12.0386     12.0573
  56       12.2038     12.3694
  57       12.7465     12.8012
  58       14.2208     14.2352
  59       14.2870     14.4120
  60       14.7356     14.7903
  61       15.1157     15.1955
  62       15.1248     15.2764
  63       15.5577     15.6648
  64       15.6574     15.7203
  65       16.2622     16.2658
  66       16.6715     16.7348
  67       16.9714     16.9741
  68       17.1998     17.3148
  69       18.0151     18.0267
  70       18.2450     18.2652
  71       18.3652     18.4371
  72       18.4449     18.4911
  73       18.7555     18.8241
  74       19.1613     19.1998
  75       19.3313     19.4039
  76       20.2995     20.3720
  77       20.4123     20.6339
  78       20.8200     20.9088
  79       20.9081     20.9199
  80       21.0057     21.0596
  81       21.2237     21.3197
  82       21.3832     21.4068
  83       21.7142     21.8514
  84       21.9787     22.0558
  85       22.0400     22.1129
  86       22.9856     23.0303
  87       23.1358     23.1777
  88       23.4163     23.5547
  89       23.6684     23.7737
  90       23.8896     23.9699
  91       24.0977     24.1871
  92       25.0103     25.0242
 
  0.2368421E+00  0.2368421E+00  0.0000000E+00  0.4545455E-02
   1      -55.0942    -54.5250
   2      -31.6360    -31.4109
   3      -31.2110    -30.4632
   4      -31.1016    -30.2147
   5      -22.1862    -22.1911
   6      -21.5644    -21.5586
   7      -21.5079    -21.4656
   8      -21.3789    -21.3392
   9      -21.0292    -20.9669
  10      -21.0049    -20.9418
  11      -19.2376    -19.2367
  12      -19.2088    -19.2085
  13       -6.4965     -6.4926
  14       -6.4346     -6.4233
  15       -6.3082     -6.2985
  16       -6.0378     -6.0359
  17       -6.0186     -6.0110
  18       -5.9585     -5.9522
  19       -4.9307     -4.8787
  20       -4.2233     -4.1689
  21       -4.1425     -4.0940
  22       -4.0458     -3.9652
  23       -3.8940     -3.8453
  24       -3.7453     -3.4794
  25       -3.3917     -3.2902
  26       -3.3039     -3.2622
  27       -3.2676     -3.2491
  28       -2.8835     -2.8440
  29       -2.8741     -2.8425
  30       -2.6237     -2.6079
  31       -2.5590     -2.5181
  32       -2.4491     -2.3937
  33       -2.3173     -2.3046
  34       -2.3117     -2.3021
  35       -2.2373     -2.1862
  36       -2.0327     -1.9391
  37        2.4420      4.1270
  38        3.7145      4.1746
  39        3.7433      4.9281
  40        5.7074      5.7725
  41        6.6139      6.7924
  42        7.1120      7.2968
  43        7.3533      7.3950
  44        7.6715      7.8133
  45        7.8536      7.9064
  46        8.0851      8.2334
  47        8.2763      8.2864
  48        8.5040      8.5334
  49        8.6977      8.7121
  50        8.6996      8.7124
  51        9.7056      9.7235
  52        9.9884     10.0008
  53       11.1227     11.2019
  54       11.6280     11.6930
  55       11.8839     11.9034
  56       12.2498     12.4146
  57       12.7913     12.8540
  58       14.2314     14.2481
  59       14.2402     14.3637
  60       14.6664     14.7178
  61       15.0026     15.1530
  62       15.1462     15.2211
  63       15.5685     15.6114
  64       15.6966     15.8165
  65       16.2789     16.2826
  66       16.6807     16.7481
  67       16.9655     16.9674
  68       17.2665     17.3863
  69       17.9694     17.9781
  70       18.2782     18.3058
  71       18.3354     18.3908
  72       18.4394     18.5186
  73       18.7516     18.8062
  74       19.1173     19.1576
  75       19.3256     19.3935
  76       20.1274     20.1976
  77       20.2224     20.4442
  78       20.7937     20.8720
  79       20.8617     20.8845
  80       20.9971     21.0614
  81       21.2630     21.3107
  82       21.6285     21.6528
  83       21.7714     21.9479
  84       22.1119     22.1283
  85       22.2468     22.3699
  86       22.9811     23.0367
  87       23.3022     23.3229
  88       23.3444     23.4779
  89       23.6288     23.7241
  90       24.1369     24.1095
  91       24.1894     24.3262
  92       24.8871     24.8917
 
  0.2631579E+00  0.2631579E+00  0.0000000E+00  0.4545455E-02
   1      -55.0942    -54.5250
   2      -31.6360    -31.4109
   3      -31.2110    -30.4632
   4      -31.1016    -30.2147
   5      -22.1851    -22.1900
   6      -21.5652    -21.5595
   7      -21.5070    -21.4645
   8      -21.3787    -21.3390
   9      -21.0294    -20.9671
  10      -21.0054    -20.9424
  11      -19.2372    -19.2363
  12      -19.2110    -19.2107
  13       -6.4843     -6.4808
  14       -6.4069     -6.3986
  15       -6.2975     -6.2877
  16       -6.0360     -6.0338
  17       -6.0292     -6.0201
  18       -5.9518     -5.9456
  19       -4.9366     -4.8848