   2   2   0   0
  0.2001288E+02  0.3839590E-09  0.3839590E-09  0.3839590E-09  0.5000000E-15
  1.000000000000000E-004
  CAR 
 unknown system                          
     79.50298620    -10.98177297  301      5.16990117      1.00000000
    -10.982  0.0000E+00  0.0000E+00
    -10.680  0.0000E+00  0.0000E+00
    -10.379  0.0000E+00  0.0000E+00
    -10.077  0.0000E+00  0.0000E+00
     -9.775  0.0000E+00  0.0000E+00
     -9.474  0.0000E+00  0.0000E+00
     -9.172  0.0000E+00  0.0000E+00
     -8.870  0.0000E+00  0.0000E+00
     -8.569 -0.9126E-33 -0.2753E-33
     -8.267 -0.1052E-22 -0.3173E-23
     -7.966 -0.1185E-14 -0.3573E-15
     -7.664 -0.1320E-08 -0.3982E-09
     -7.362 -0.1388E-04 -0.4186E-05
     -7.061 -0.1806E-02 -0.5488E-03
     -6.759  0.3567E-01  0.1021E-01
     -6.458  0.1575E+00  0.5772E-01
     -6.156  0.3198E+00  0.1542E+00
     -5.854  0.3077E+00  0.2470E+00
     -5.553  0.4661E+00  0.3876E+00
     -5.251  0.3349E+00  0.4886E+00
     -4.949  0.7295E+00  0.7086E+00
     -4.648  0.6127E+00  0.8934E+00
     -4.346  0.7645E+00  0.1124E+01
     -4.045  0.9046E+00  0.1397E+01
     -3.743  0.4746E+00  0.1540E+01
     -3.441  0.7906E+00  0.1778E+01
     -3.140  0.3406E+00  0.1881E+01
     -2.838  0.2917E+00  0.1969E+01
     -2.537  0.1971E+00  0.2029E+01
     -2.235  0.1905E+00  0.2086E+01
     -1.933  0.3980E+00  0.2206E+01
     -1.632  0.1399E+01  0.2628E+01
     -1.330  0.7465E+00  0.2853E+01
     -1.028  0.6960E+00  0.3063E+01
     -0.727  0.6498E+00  0.3259E+01
     -0.425  0.1047E+00  0.3291E+01
     -0.124  0.6672E+00  0.3492E+01
      0.178  0.2013E+00  0.3553E+01
      0.480  0.2368E+00  0.3624E+01
      0.781  0.4157E+00  0.3750E+01
      1.083  0.1399E+01  0.4171E+01
      1.384  0.9027E+00  0.4444E+01
      1.686  0.8021E+00  0.4686E+01
      1.988  0.1547E+01  0.5152E+01
      2.289  0.1151E+01  0.5499E+01
      2.591  0.1319E+01  0.5897E+01
      2.893  0.1395E+01  0.6318E+01
      3.194  0.1534E+01  0.6781E+01
      3.496  0.8509E+00  0.7037E+01
      3.797  0.1129E+01  0.7378E+01
      4.099  0.1104E+01  0.7711E+01
      4.401  0.3616E+00  0.7820E+01
      4.702  0.3291E+00  0.7919E+01
      5.004  0.2263E+00  0.7987E+01
      5.305  0.4384E-01  0.8001E+01
      5.607 -0.1820E-02  0.8000E+01
      5.909 -0.2628E-02  0.7999E+01
      6.210  0.4595E-01  0.8013E+01
      6.512  0.2539E+00  0.8090E+01
      6.814  0.3560E+00  0.8197E+01
      7.115  0.2949E+00  0.8286E+01
      7.417  0.9471E+00  0.8572E+01
      7.718  0.9792E+00  0.8867E+01
      8.020  0.1718E+01  0.9385E+01
      8.322  0.9786E+00  0.9680E+01
      8.623  0.1360E+01  0.1009E+02
      8.925  0.1170E+01  0.1044E+02
      9.226  0.1262E+01  0.1082E+02
      9.528  0.2493E+01  0.1158E+02
      9.830  0.1397E+01  0.1200E+02
     10.131  0.9071E+00  0.1227E+02
     10.433  0.1028E+01  0.1258E+02
     10.735  0.1471E+01  0.1302E+02
     11.036  0.1118E+01  0.1336E+02
     11.338  0.1681E+01  0.1387E+02
     11.639  0.6492E+00  0.1406E+02
     11.941  0.1165E+01  0.1442E+02
     12.243  0.8403E+00  0.1467E+02
     12.544  0.1260E+01  0.1505E+02
     12.846  0.1124E+01  0.1539E+02
     13.147  0.2402E+01  0.1611E+02
     13.449  0.1281E+01  0.1650E+02
     13.751  0.7057E+00  0.1671E+02
     14.052  0.9451E+00  0.1700E+02
     14.354  0.1202E+01  0.1736E+02
     14.656  0.1080E+01  0.1769E+02
     14.957  0.2137E+01  0.1833E+02
     15.259  0.1888E+01  0.1890E+02
     15.560  0.1249E+01  0.1928E+02
     15.862  0.8900E+00  0.1954E+02
     16.164  0.6652E+00  0.1975E+02
     16.465  0.1256E+01  0.2012E+02
     16.767  0.1121E+01  0.2046E+02
     17.069  0.1678E+01  0.2097E+02
     17.370  0.1366E+01  0.2138E+02
     17.672  0.2143E+01  0.2203E+02
     17.973  0.1329E+01  0.2243E+02
     18.275  0.4878E+00  0.2257E+02
     18.577  0.1693E+01  0.2309E+02
     18.878  0.1385E+01  0.2350E+02
     19.180  0.1689E+01  0.2401E+02
     19.481  0.2233E+01  0.2469E+02
     19.783  0.2441E+01  0.2542E+02
     20.085  0.1096E+01  0.2575E+02
     20.386  0.8087E+00  0.2600E+02
     20.688  0.9118E+00  0.2627E+02
     20.990  0.1229E+01  0.2664E+02
     21.291  0.1798E+01  0.2718E+02
     21.593  0.1572E+01  0.2766E+02
     21.894  0.2291E+01  0.2835E+02
     22.196  0.1162E+01  0.2870E+02
     22.498  0.1211E+01  0.2907E+02
     22.799  0.1387E+01  0.2948E+02
     23.101  0.1992E+01  0.3008E+02
     23.402  0.1296E+01  0.3048E+02
     23.704  0.8767E+00  0.3074E+02
     24.006  0.2123E+01  0.3138E+02
     24.307  0.1903E+01  0.3195E+02
     24.609  0.1915E+01  0.3253E+02
     24.911  0.2000E+01  0.3313E+02
     25.212  0.1522E+01  0.3359E+02
     25.514  0.1750E+01  0.3412E+02
     25.815  0.1924E+01  0.3470E+02
     26.117  0.1774E+01  0.3524E+02
     26.419  0.1754E+01  0.3577E+02
     26.720  0.1279E+01  0.3615E+02
     27.022  0.9063E+00  0.3643E+02
     27.323  0.1159E+01  0.3677E+02
     27.625  0.2254E+01  0.3745E+02
     27.927  0.2639E+01  0.3825E+02
     28.228  0.1623E+01  0.3874E+02
     28.530  0.1654E+01  0.3924E+02
     28.832  0.2015E+01  0.3985E+02
     29.133  0.1428E+01  0.4028E+02
     29.435  0.1272E+01  0.4066E+02
     29.736  0.1938E+01  0.4125E+02
     30.038  0.1656E+01  0.4175E+02
     30.340  0.1107E+01  0.4208E+02
     30.641  0.1338E+01  0.4248E+02
     30.943  0.1297E+01  0.4287E+02
     31.244  0.1508E+01  0.4333E+02
     31.546  0.1490E+01  0.4378E+02
     31.848  0.2259E+01  0.4446E+02
     32.149  0.1598E+01  0.4494E+02
     32.451  0.2151E+01  0.4559E+02
     32.753  0.1922E+01  0.4617E+02
     33.054  0.1099E+01  0.4650E+02
     33.356  0.1980E+01  0.4710E+02
     33.657  0.2040E+01  0.4771E+02
     33.959  0.1321E+01  0.4811E+02
     34.261  0.1442E+01  0.4855E+02
     34.562  0.1244E+01  0.4892E+02
     34.864  0.2938E+01  0.4981E+02
     35.165  0.2416E+01  0.5054E+02
     35.467  0.1334E+01  0.5094E+02
     35.769  0.1763E+01  0.5147E+02
     36.070  0.2547E+01  0.5224E+02
     36.372  0.1965E+01  0.5283E+02
     36.674  0.1332E+01  0.5323E+02
     36.975  0.2004E+01  0.5384E+02
     37.277  0.2222E+01  0.5451E+02
     37.578  0.2630E+01  0.5530E+02
     37.880  0.9377E+00  0.5558E+02
     38.182  0.1800E+01  0.5613E+02
     38.483  0.2137E+01  0.5677E+02
     38.785  0.2841E+01  0.5763E+02
     39.086  0.1132E+01  0.5797E+02
     39.388  0.1670E+01  0.5847E+02
     39.690  0.2201E+01  0.5914E+02
     39.991  0.1862E+01  0.5970E+02
     40.293  0.2043E+01  0.6032E+02
     40.595  0.1654E+01  0.6081E+02
     40.896  0.1601E+01  0.6130E+02
     41.198  0.1442E+01  0.6173E+02
     41.499  0.1408E+01  0.6216E+02
     41.801  0.1871E+01  0.6272E+02
     42.103  0.1685E+01  0.6323E+02
     42.404  0.1372E+01  0.6364E+02
     42.706  0.2635E+01  0.6444E+02
     43.007  0.1388E+01  0.6486E+02
     43.309  0.1449E+01  0.6529E+02
     43.611  0.1996E+01  0.6590E+02
     43.912  0.1731E+01  0.6642E+02
     44.214  0.2916E+01  0.6730E+02
     44.516  0.1590E+01  0.6778E+02
     44.817  0.2712E+01  0.6860E+02
     45.119  0.1164E+01  0.6895E+02
     45.420  0.2224E+01  0.6962E+02
     45.722  0.1460E+01  0.7006E+02
     46.024  0.2167E+01  0.7071E+02
     46.325  0.2648E+01  0.7151E+02
     46.627  0.2417E+01  0.7224E+02
     46.928  0.1700E+01  0.7275E+02
     47.230  0.2144E+01  0.7340E+02
     47.532  0.1101E+01  0.7373E+02
     47.833  0.1898E+01  0.7430E+02
     48.135  0.1609E+01  0.7479E+02
     48.437  0.2692E+01  0.7560E+02
     48.738  0.1814E+01  0.7615E+02
     49.040  0.2520E+01  0.7691E+02
     49.341  0.1798E+01  0.7745E+02
     49.643  0.2415E+01  0.7818E+02
     49.945  0.1649E+01  0.7868E+02
     50.246  0.2587E+01  0.7946E+02
     50.548  0.2746E+01  0.8028E+02
     50.849  0.2325E+01  0.8099E+02
     51.151  0.1725E+01  0.8151E+02
     51.453  0.2175E+01  0.8216E+02
     51.754  0.2056E+01  0.8278E+02
     52.056  0.2152E+01  0.8343E+02
     52.358  0.1732E+01  0.8395E+02
     52.659  0.1607E+01  0.8444E+02
     52.961  0.2955E+01  0.8533E+02
     53.262  0.1674E+01  0.8583E+02
     53.564  0.2584E+01  0.8661E+02
     53.866  0.2136E+01  0.8726E+02
     54.167  0.2589E+01  0.8804E+02
     54.469  0.2752E+01  0.8887E+02
     54.770  0.2510E+01  0.8963E+02
     55.072  0.1997E+01  0.9023E+02
     55.374  0.1768E+01  0.9076E+02
     55.675  0.2023E+01  0.9137E+02
     55.977  0.2057E+01  0.9199E+02
     56.279  0.1745E+01  0.9252E+02
     56.580  0.1473E+01  0.9296E+02
     56.882  0.3745E+01  0.9409E+02
     57.183  0.1085E+01  0.9442E+02
     57.485  0.1449E+01  0.9486E+02
     57.787  0.1944E+01  0.9544E+02
     58.088  0.1559E+01  0.9591E+02
     58.390  0.2029E+01  0.9652E+02
     58.691  0.1269E+01  0.9691E+02
     58.993  0.1027E+01  0.9722E+02
     59.295  0.1815E+01  0.9776E+02
     59.596  0.3017E+01  0.9867E+02
     59.898  0.2585E+01  0.9945E+02
     60.200  0.2851E+01  0.1003E+03
     60.501  0.3209E+01  0.1013E+03
     60.803  0.2982E+01  0.1022E+03
     61.104  0.1917E+01  0.1028E+03
     61.406  0.2220E+01  0.1034E+03
     61.708  0.2350E+01  0.1041E+03
     62.009  0.2525E+01  0.1049E+03
     62.311  0.1849E+01  0.1055E+03
     62.612  0.1524E+01  0.1059E+03
     62.914  0.2243E+01  0.1066E+03
     63.216  0.2415E+01  0.1073E+03
     63.517  0.2630E+01  0.1081E+03
     63.819  0.2507E+01  0.1089E+03
     64.121  0.2628E+01  0.1097E+03
     64.422  0.2510E+01  0.1104E+03
     64.724  0.2818E+01  0.1113E+03
     65.025  0.2467E+01  0.1120E+03
     65.327  0.2358E+01  0.1127E+03
     65.629  0.1617E+01  0.1132E+03
     65.930  0.2916E+01  0.1141E+03
     66.232  0.2689E+01  0.1149E+03
     66.534  0.1852E+01  0.1155E+03
     66.835  0.1853E+01  0.1160E+03
     67.137  0.2669E+01  0.1168E+03
     67.438  0.2570E+01  0.1176E+03
     67.740  0.2679E+01  0.1184E+03
     68.042  0.2077E+01  0.1190E+03
     68.343  0.2086E+01  0.1197E+03
     68.645  0.1967E+01  0.1203E+03
     68.946  0.3082E+01  0.1212E+03
     69.248  0.2691E+01  0.1220E+03
     69.550  0.2683E+01  0.1228E+03
     69.851  0.2536E+01  0.1236E+03
     70.153  0.2962E+01  0.1245E+03
     70.455  0.1939E+01  0.1251E+03
     70.756  0.2654E+01  0.1259E+03
     71.058  0.1787E+01  0.1264E+03
     71.359  0.1879E+01  0.1270E+03
     71.661  0.1556E+01  0.1274E+03
     71.963  0.7343E+00  0.1276E+03
     72.264  0.1898E+00  0.1277E+03
     72.566  0.2054E+00  0.1278E+03
     72.867  0.2217E+00  0.1278E+03
     73.169  0.3330E-01  0.1278E+03
     73.471  0.7079E-01  0.1279E+03
     73.772 -0.3970E-02  0.1279E+03
     74.074  0.1272E+00  0.1279E+03
     74.376  0.9583E-01  0.1279E+03
     74.677 -0.8704E-02  0.1279E+03
     74.979  0.8839E-01  0.1280E+03
     75.280  0.1182E+00  0.1280E+03
     75.582  0.2626E-01  0.1280E+03
     75.884 -0.8272E-03  0.1280E+03
     76.185 -0.3655E-04  0.1280E+03
     76.487 -0.3920E-08  0.1280E+03
     76.788 -0.3551E-14  0.1280E+03
     77.090  0.0000E+00  0.1280E+03
     77.392  0.0000E+00  0.1280E+03
     77.693  0.0000E+00  0.1280E+03
     77.995  0.0000E+00  0.1280E+03
     78.297  0.0000E+00  0.1280E+03
     78.598  0.0000E+00  0.1280E+03
     78.900  0.0000E+00  0.1280E+03
     79.201  0.0000E+00  0.1280E+03
     79.503  0.0000E+00  0.1280E+03
