    2    2    1    1
  0.2001288E+02  0.3839590E-09  0.3839590E-09  0.3839590E-09  0.5000000E-15
  1.000000000000000E-004
  CAR 
 unknown system                          
      8      8     64
 
  0.0000000E+00  0.0000000E+00  0.0000000E+00  0.1562500E-01
      1         -6.872395   1.000000
      2          5.146074   1.000000
      3          5.146074   1.000000
      4          5.146074   1.000000
      5          8.327833  -0.000000
      6          8.327833  -0.000000
      7          8.327833  -0.000000
      8          9.271594  -0.000000
      9         13.275259   0.000000
     10         13.275259   0.000000
     11         13.467684   0.000000
     12         16.765778   0.000000
     13         16.765778   0.000000
     14         16.765778   0.000000
     15         20.920284   0.000000
     16         28.847510   0.000000
     17         28.847510   0.000000
     18         28.847510   0.000000
     19         30.017025   0.000000
     20         30.017025   0.000000
     21         31.416039   0.000000
     22         31.416039   0.000000
     23         31.416039   0.000000
     24         34.770950   0.000000
     25         34.770950   0.000000
     26         34.770950   0.000000
     27         40.828202   0.000000
     28         40.828202   0.000000
     29         40.828202   0.000000
     30         43.920594   0.000000
     31         44.677707   0.000000
     32         44.677707   0.000000
     33         46.339962   0.000000
     34         46.339962   0.000000
     35         47.885248   0.000000
     36         47.885248   0.000000
     37         47.885248   0.000000
     38         49.557247   0.000000
     39         49.557247   0.000000
     40         49.557247   0.000000
     41         50.190679   0.000000
     42         50.563130   0.000000
     43         50.563130   0.000000
     44         50.563130   0.000000
     45         50.615325   0.000000
     46         50.615325   0.000000
     47         50.615325   0.000000
     48         51.949942   0.000000
     49         51.949942   0.000000
     50         51.949942   0.000000
     51         56.004879   0.000000
     52         57.188136   0.000000
     53         57.188136   0.000000
     54         57.188136   0.000000
     55         57.402115   0.000000
     56         57.402115   0.000000
     57         57.402115   0.000000
     58         62.590570   0.000000
     59         63.597176   0.000000
     60         72.389612   0.000000
     61         72.389612   0.000000
     62         75.419116   0.000000
     63         75.419116   0.000000
     64         75.419116   0.000000
 
  0.2500000E+00  0.3119052E-17  0.4475242E-16  0.1250000E+00
      1         -6.073884   1.000000
      2          1.146143   1.000000
      3          4.361499   1.000000
      4          4.361499   1.000000
      5          7.773792  -0.000000
      6          9.282292  -0.000000
      7          9.282292  -0.000000
      8         12.703416   0.000000
      9         12.729201   0.000000
     10         12.729201   0.000000
     11         14.505568   0.000000
     12         17.368768   0.000000
     13         20.214265   0.000000
     14         20.214265   0.000000
     15         23.443817   0.000000
     16         23.443817   0.000000
     17         23.614163   0.000000
     18         25.612622   0.000000
     19         29.818200   0.000000
     20         29.818200   0.000000
     21         32.314158   0.000000
     22         32.314158   0.000000
     23         33.665762   0.000000
     24         35.195401   0.000000
     25         35.478494   0.000000
     26         37.456910   0.000000
     27         37.456910   0.000000
     28         39.285186   0.000000
     29         39.285186   0.000000
     30         40.182653   0.000000
     31         40.182653   0.000000
     32         43.845734   0.000000
     33         43.845734   0.000000
     34         43.930667   0.000000
     35         44.487676   0.000000
     36         44.912812   0.000000
     37         46.930709   0.000000
     38         46.930709   0.000000
     39         49.135396   0.000000
     40         49.515336   0.000000
     41         49.515336   0.000000
     42         49.955249   0.000000
     43         50.300272   0.000000
     44         52.826155   0.000000
     45         52.826155   0.000000
     46         55.275736   0.000000
     47         55.275736   0.000000
     48         56.526765   0.000000
     49         56.578764   0.000000
     50         56.578764   0.000000
     51         58.416538   0.000000
     52         59.719544   0.000000
     53         62.746988   0.000000
     54         62.746988   0.000000
     55         63.310574   0.000000
     56         63.310574   0.000000
     57         63.575667   0.000000
     58         65.661653   0.000000
     59         65.661653   0.000000
     60         66.509096   0.000000
     61         67.519108   0.000000
     62         68.525498   0.000000
     63         68.525498   0.000000
     64         72.167680   0.000000
 
  0.5000000E+00  0.6238104E-17  0.8950483E-16  0.6250000E-01
      1         -4.546014   1.000000
      2         -1.918767   1.000000
      3          3.891415   1.000000
      4          3.891415   1.000000
      5          7.266378  -0.000000
      6          9.090463  -0.000000
      7          9.090463  -0.000000
      8         13.103712   0.000000
      9         16.150554   0.000000
     10         16.150554   0.000000
     11         16.877505   0.000000
     12         16.877505   0.000000
     13         16.891930   0.000000
     14         18.532915   0.000000
     15         25.042511   0.000000
     16         25.532948   0.000000
     17         27.266324   0.000000
     18         27.266324   0.000000
     19         27.488966   0.000000
     20         27.488966   0.000000
     21         31.348465   0.000000
     22         32.086801   0.000000
     23         32.086801   0.000000
     24         33.160247   0.000000
     25         33.160247   0.000000
     26         33.859152   0.000000
     27         36.562775   0.000000
     28         38.106585   0.000000
     29         38.106585   0.000000
     30         38.583897   0.000000
     31         38.583897   0.000000
     32         39.624317   0.000000
     33         41.967173   0.000000
     34         42.332791   0.000000
     35         46.524569   0.000000
     36         46.524569   0.000000
     37         48.315430   0.000000
     38         48.315430   0.000000
     39         48.441945   0.000000
     40         49.562882   0.000000
     41         52.531108   0.000000
     42         52.531108   0.000000
     43         54.262945   0.000000
     44         54.262945   0.000000
     45         55.054785   0.000000
     46         58.357768   0.000000
     47         58.386063   0.000000
     48         58.386063   0.000000
     49         59.732542   0.000000
     50         59.732542   0.000000
     51         59.915614   0.000000
     52         61.677435   0.000000
     53         61.677435   0.000000
     54         64.448695   0.000000
     55         64.448695   0.000000
     56         65.067677   0.000000
     57         65.576619   0.000000
     58         65.576619   0.000000
     59         67.315568   0.000000
     60         68.324240   0.000000
     61         68.324240   0.000000
     62         68.954519   0.000000
     63         69.774055   0.000000
     64         70.341342   0.000000
 
  0.2500000E+00  0.2500000E+00  0.3983654E-16  0.9375000E-01
      1         -5.795502   1.000000
      2          1.598008   1.000000
      3          3.179590   1.000000
      4          3.179590   1.000000
      5          6.762456  -0.000000
      6          8.795845  -0.000000
      7         11.574581   0.000000
      8         11.574581   0.000000
      9         13.592755   0.000000
     10         14.487810   0.000000
     11         16.950842   0.000000
     12         18.563506   0.000000
     13         18.563506   0.000000
     14         19.281151   0.000000
     15         22.997106   0.000000
     16         22.997106   0.000000
     17         23.980969   0.000000
     18         25.976022   0.000000
     19         26.589179   0.000000
     20         30.622227   0.000000
     21         32.099120   0.000000
     22         33.010728   0.000000
     23         33.010728   0.000000
     24         35.108638   0.000000
     25         35.108638   0.000000
     26         35.438713   0.000000
     27         36.002663   0.000000
     28         40.539621   0.000000
     29         40.777270   0.000000
     30         41.142336   0.000000
     31         41.142336   0.000000
     32         42.922534   0.000000
     33         42.995883   0.000000
     34         42.995883   0.000000
     35         46.367723   0.000000
     36         46.367723   0.000000
     37         46.542989   0.000000
     38         46.883179   0.000000
     39         47.123548   0.000000
     40         49.621939   0.000000
     41         49.621939   0.000000
     42         49.781521   0.000000
     43         51.995121   0.000000
     44         53.158239   0.000000
     45         53.158239   0.000000
     46         54.645262   0.000000
     47         54.807344   0.000000
     48         56.479400   0.000000
     49         56.630703   0.000000
     50         56.630703   0.000000
     51         57.591681   0.000000
     52         58.811758   0.000000
     53         61.784057   0.000000
     54         63.002758   0.000000
     55         63.002758   0.000000
     56         65.612064   0.000000
     57         68.095894   0.000000
     58         68.095894   0.000000
     59         68.458518   0.000000
     60         68.851398   0.000000
     61         68.971236   0.000000
     62         68.971236   0.000000
     63         69.604509   0.000000
     64         72.334756   0.000000
 
  0.5000000E+00  0.2500000E+00  0.1656973E-15  0.3750000E+00
      1         -4.153427   1.000000
      2         -1.296891   1.000000
      3          1.506378   1.000000
      4          2.846893   1.000000
      5          7.151752  -0.000000
      6         10.132349  -0.000000
      7         11.546962   0.000000
      8         11.713350   0.000000
      9         15.749573   0.000000
     10         16.106132   0.000000
     11         17.733969   0.000000
     12         18.253046   0.000000
     13         18.563017   0.000000
     14         22.431228   0.000000
     15         23.345687   0.000000
     16         24.249025   0.000000
     17         24.937061   0.000000
     18         25.220965   0.000000
     19         25.548540   0.000000
     20         28.491593   0.000000
     21         29.464931   0.000000
     22         30.810235   0.000000
     23         31.217862   0.000000
     24         33.420661   0.000000
     25         34.728054   0.000000
     26         34.992792   0.000000
     27         34.995727   0.000000
     28         36.798080   0.000000
     29         37.792710   0.000000
     30         39.992604   0.000000
     31         41.137190   0.000000
     32         41.838195   0.000000
     33         42.823551   0.000000
     34         42.976724   0.000000
     35         44.284282   0.000000
     36         46.623972   0.000000
     37         49.000921   0.000000
     38         49.710528   0.000000
     39         50.347584   0.000000
     40         50.832909   0.000000
     41         50.849601   0.000000
     42         51.817093   0.000000
     43         52.186462   0.000000
     44         54.138349   0.000000
     45         54.722662   0.000000
     46         56.040669   0.000000
     47         56.899643   0.000000
     48         57.430837   0.000000
     49         58.965942   0.000000
     50         60.703917   0.000000
     51         61.082703   0.000000
     52         61.553179   0.000000
     53         62.225170   0.000000
     54         64.101939   0.000000
     55         64.858455   0.000000
     56         66.278839   0.000000
     57         66.345132   0.000000
     58         67.023820   0.000000
     59         67.254167   0.000000
     60         68.645857   0.000000
     61         68.950261   0.000000
     62         69.464259   0.000000
     63         69.968091   0.000000
     64         71.794970   0.000000
 
 -0.2500000E+00  0.2500000E+00 -0.5182664E-16  0.1875000E+00
      1         -4.836966   1.000000
      2         -0.390907   1.000000
      3          1.275804   1.000000
      4          3.764187   1.000000
      5          8.156494  -0.000000
      6         10.590171  -0.000000
      7         10.855130   0.000000
      8         11.890746   0.000000
      9         11.984039   0.000000
     10         15.170056   0.000000
     11         18.167984   0.000000
     12         18.772008   0.000000
     13         18.989496   0.000000
     14         22.231960   0.000000
     15         22.729457   0.000000
     16         23.064063   0.000000
     17         24.309927   0.000000
     18         26.935990   0.000000
     19         27.274484   0.000000
     20         29.619217   0.000000
     21         30.355975   0.000000
     22         30.945626   0.000000
     23         32.445922   0.000000
     24         32.670647   0.000000
     25         33.515906   0.000000
     26         34.896805   0.000000
     27         36.059361   0.000000
     28         36.827976   0.000000
     29         39.966009   0.000000
     30         40.045099   0.000000
     31         41.739137   0.000000
     32         42.763801   0.000000
     33         43.058446   0.000000
     34         43.603012   0.000000
     35         44.071057   0.000000
     36         44.176345   0.000000
     37         44.289021   0.000000
     38         48.159624   0.000000
     39         49.576743   0.000000
     40         51.017914   0.000000
     41         52.066297   0.000000
     42         52.155123   0.000000
     43         54.695998   0.000000
     44         54.849395   0.000000
     45         56.122997   0.000000
     46         56.229287   0.000000
     47         56.288341   0.000000
     48         57.668739   0.000000
     49         58.364117   0.000000
     50         59.631795   0.000000
     51         60.214965   0.000000
     52         61.739863   0.000000
     53         62.402952   0.000000
     54         62.793309   0.000000
     55         63.316802   0.000000
     56         63.678560   0.000000
     57         65.942992   0.000000
     58         66.687684   0.000000
     59         66.804877   0.000000
     60         66.917202   0.000000
     61         68.144554   0.000000
     62         69.998612   0.000000
     63         70.664882   0.000000
     64         71.377131   0.000000
 
  0.5000000E+00  0.5000000E+00  0.7967307E-16  0.4687500E-01
      1         -2.715892   1.000000
      2         -2.715892   1.000000
      3          2.170391   1.000000
      4          2.170391   1.000000
      5          6.294701  -0.000000
      6          6.294701  -0.000000
      7         15.934130   0.000000
      8         15.934130   0.000000
      9         16.587451   0.000000
     10         16.587451   0.000000
     11         18.115372   0.000000
     12         18.115372   0.000000
     13         18.581622   0.000000
     14         18.581622   0.000000
     15         24.494084   0.000000
     16         24.494084   0.000000
     17         25.292975   0.000000
     18         25.292975   0.000000
     19         25.753968   0.000000
     20         25.753968   0.000000
     21         27.054842   0.000000
     22         27.054842   0.000000
     23         31.350529   0.000000
     24         31.350529   0.000000
     25         35.110010   0.000000
     26         35.110010   0.000000
     27         39.789791   0.000000
     28         39.789791   0.000000
     29         39.965088   0.000000
     30         39.965088   0.000000
     31         41.654749   0.000000
     32         41.654749   0.000000
     33         43.823004   0.000000
     34         43.823004   0.000000
     35         45.146486   0.000000
     36         45.146486   0.000000
     37         46.443113   0.000000
     38         46.443113   0.000000
     39         47.479829   0.000000
     40         47.479829   0.000000
     41         50.745285   0.000000
     42         50.745285   0.000000
     43         54.885591   0.000000
     44         54.885591   0.000000
     45         56.108570   0.000000
     46         56.108570   0.000000
     47         59.627885   0.000000
     48         59.627885   0.000000
     49         62.189946   0.000000
     50         62.189946   0.000000
     51         62.898075   0.000000
     52         62.898075   0.000000
     53         63.078893   0.000000
     54         63.078893   0.000000
     55         63.544229   0.000000
     56         63.544229   0.000000
     57         65.705095   0.000000
     58         65.705095   0.000000
     59         66.793516   0.000000
     60         66.793516   0.000000
     61         67.186103   0.000000
     62         67.186103   0.000000
     63         69.953751   0.000000
     64         69.953751   0.000000
 
 -0.2500000E+00  0.5000000E+00  0.2500000E+00  0.9375000E-01
      1         -2.540246   1.000000
      2         -2.540246   1.000000
      3          1.162197   1.000000
      4          1.162197   1.000000
      5          9.921685  -0.000000
      6          9.921685  -0.000000
      7         10.794089   0.000000
      8         10.794089   0.000000
      9         16.134149   0.000000
     10         16.134149   0.000000
     11         18.584933   0.000000
     12         18.584933   0.000000
     13         22.016681   0.000000
     14         22.016681   0.000000
     15         24.110168   0.000000
     16         24.110168   0.000000
     17         24.558255   0.000000
     18         24.558255   0.000000
     19         25.489673   0.000000
     20         25.489673   0.000000
     21         29.303300   0.000000
     22         29.303300   0.000000
     23         33.064667   0.000000
     24         33.064667   0.000000
     25         33.205868   0.000000
     26         33.205868   0.000000
     27         34.981963   0.000000
     28         34.981963   0.000000
     29         38.540928   0.000000
     30         38.540928   0.000000
     31         42.390168   0.000000
     32         42.390168   0.000000
     33         43.648244   0.000000
     34         43.648244   0.000000
     35         45.949648   0.000000
     36         45.949648   0.000000
     37         48.994858   0.000000
     38         48.994858   0.000000
     39         50.191486   0.000000
     40         50.191486   0.000000
     41         52.991403   0.000000
     42         52.991403   0.000000
     43         54.160509   0.000000
     44         54.160509   0.000000
     45         54.438333   0.000000
     46         54.438333   0.000000
     47         57.445235   0.000000
     48         57.445235   0.000000
     49         61.198700   0.000000
     50         61.198700   0.000000
     51         61.657004   0.000000
     52         61.657004   0.000000
     53         62.661528   0.000000
     54         62.661528   0.000000
     55         65.096559   0.000000
     56         65.096559   0.000000
     57         65.525544   0.000000
     58         65.525544   0.000000
     59         67.794460   0.000000
     60         67.794460   0.000000
     61         68.582944   0.000000
     62         68.582944   0.000000
     63         70.499058   0.000000
     64         70.499058   0.000000
